

 Parallel Execution: Process Information
 ==============================================================================
 Rank   Node Name                              NodeID   MyNodeRank  NodeMaster
    0   Yumans-MacBook-Pro.local                  0          0          0
    1   Yumans-MacBook-Pro.local                  0          1         -1
    2   Yumans-MacBook-Pro.local                  0          2         -1
    3   Yumans-MacBook-Pro.local                  0          3         -1
    4   Yumans-MacBook-Pro.local                  0          4         -1
    5   Yumans-MacBook-Pro.local                  0          5         -1
    6   Yumans-MacBook-Pro.local                  0          6         -1
    7   Yumans-MacBook-Pro.local                  0          7         -1
    8   Yumans-MacBook-Pro.local                  0          8         -1
    9   Yumans-MacBook-Pro.local                  0          9         -1
 ==============================================================================


May use up to 15625MB of RAM as shared memory on node 0

 *******************************************************************************
 *                                                                             *
 *  --------------------------------                                           *
 *   Amsterdam Modeling Suite (AMS)              2022.103                      *
 *  --------------------------------                                           *
 *                                               r104886 2022-06-17            *
 *                                                                             *
 *                                                                             *
 *                              =================                              *
 *                              |               |                              *
 *                              |     A M S     |                              *
 *                              |               |                              *
 *                              =================                              *
 *                                                                             *
 *                                                                             *
 *   Online information and documentation:  https://www.scm.com/support/       *
 *   E-mail:  support@scm.com   info@scm.com                                   *
 *                                                                             *
 *   Scientific publications using AMS results must be properly referenced     *
 *   See the User Manuals (or the web site) for recommended citations          *
 *   The terms and conditions of the End User License Agreement apply to       *
 *   the use of AMS, https://www.scm.com/license-terms/                        *
 *                                                                             *
 **********************  x86_64_darwin_intel / openmpi  ************************
 
 Licensed to: Prof Visscher, Prof Bickelhaupt, Prof Fonseca Guerra / Vrije Universiteit, Theoretische Chemie / Amsterdam / NETHERLANDS 2022-12-13 09:59:29
 SCM User ID: u21794
  
 AMS 2022.103  RunTime: Sep26-2023 18:00:46  ShM Nodes: 1  Procs: 10

 AMS jobname: ams
 AMS jobid  : 930566867

 Start   directory: /Users/yumanhordijk/PhD/pi_rotation/MeMe_ADF_distance/0.5/tmp.yumanhordijk.18588.0.noindex/
 Results directory: /Users/yumanhordijk/PhD/pi_rotation/MeMe_ADF_distance/0.5/sp.results/
 Scratch directory: /tmp/amstmp_ams_kid0.930566867/


 Communication costs MPI_COMM_WORLD:      2.433 usec per message,   0.0338 usec per 8-byte item
 Communication costs for intra-node:      0.443 usec per message,   2.0563 usec per 8-byte item

 RNG seed: -1740625443 -1503766461 2095820687 2099969396 273767053 1653630329 -1830051942 135191883



                     *************************************************************************
                     *  ADF 2022.103  RunTime: Sep26-2023 18:00:52  ShM Nodes: 1  Procs: 10  *
                     *************************************************************************
  
       ****************************
       * SINGLE POINT CALCULATION *
       ****************************
 
--------
Geometry
--------
Formula: C2H6
Atoms
  Index Symbol   x (angstrom)   y (angstrom)   z (angstrom)
      1      C     0.00000000     0.00000000     0.00000000       region=Me1 adf.f=Me1
      2      H     0.53644704    -0.92915353     0.00000000       region=Me1 adf.f=Me1
      3      H     0.53644704     0.92915353     0.00000000       region=Me1 adf.f=Me1
      4      H    -1.07289408     0.00000000     0.00000000       region=Me1 adf.f=Me1
      5      C     0.00000000     0.00063883     0.50000000       region=Me2 adf.f=Me2
      6      H     0.53644704    -0.92915353     0.50000000       region=Me2 adf.f=Me2
      7      H     0.53644704     0.92915353     0.50000000       region=Me2 adf.f=Me2
      8      H    -1.07289408     0.00000000     0.50000000       region=Me2 adf.f=Me2
 
Total System Charge             0.00000
Bonding info available!
 
 
----------------
ADF Engine Input
----------------
 
 Basis
 Type TZ2P
 Core None
 End
 SpinPolarization 0.0
 Fragments
 Me1 Me1.rkf
 Me2 Me2.rkf
 End
 XC
 GGA OLYP
 End
 Symmetry NOSYM
 Unrestricted Yes
 UnrestrictedFragments Yes
 

 Title: *** (NO TITLE) ***

 *** adf ***



 ===========================
 A T T A C H E D   F I L E S
 ===========================
  



 ===============================
 M O D E L   P A R A M E T E R S
 ===============================
  
 DENSITY FUNCTIONAL POTENTIAL (scf)
    LDA:                               Exchange only                           == Not Default ==
    Gradient Corrections:              OPTX LYP                                == Not Default ==

 SPIN  (restricted / unrestr.)
    Molecule:                          UNrestricted                            == Not Default ==
    Fragments:                         UNrestricted                            == Not Default ==

 OTHER ASPECTS
    Relativistic Corrections:          scalar (ZORA,MAPA)                       

    Nuclear Charge Density Model:      Point Charge Nuclei                      
    Core Treatment:                    Frozen Orbital(s)                        

    Hyperfine or Zeeman Interaction:   ---                                      


 Fragment File(s)
 ----------------
 Me1:
         file : Me1.rkf
         jobid: 1478917497
         title: *** adf ***
 Me2:
         file : Me2.rkf
         jobid: 330049866
         title: *** adf ***



 ===============
 G E O M E T R Y  ***  3D  Molecule  ***
 ===============
  

 ATOMS
 =====                            X Y Z                    CHARGE
                                (Angstrom)             Nucl     +Core       At.Mass
                       --------------------------    ----------------       -------
    1  C               0.0000    0.0000    0.0000      6.00      6.00       12.0000
    2  H               0.5364   -0.9292    0.0000      1.00      1.00        1.0078
    3  H               0.5364    0.9292    0.0000      1.00      1.00        1.0078
    4  H              -1.0729    0.0000    0.0000      1.00      1.00        1.0078
    5  C               0.0000    0.0006    0.5000      6.00      6.00       12.0000
    6  H               0.5364   -0.9292    0.5000      1.00      1.00        1.0078
    7  H               0.5364    0.9292    0.5000      1.00      1.00        1.0078
    8  H              -1.0729    0.0000    0.5000      1.00      1.00        1.0078


 FRAGMENTS
 =========                                     Atoms in this Fragment     Cart. coord.s (Angstrom)
                                               -------------------------------------------------------
    1  Me1                                               1  C            0.0000    0.0000    0.0000
                                                         2  H            0.5364   -0.9292    0.0000
                                                         3  H            0.5364    0.9292    0.0000
                                                         4  H           -1.0729    0.0000    0.0000
    2  Me2                                               5  C            0.0000    0.0006    0.5000
                                                         6  H            0.5364   -0.9292    0.5000
                                                         7  H            0.5364    0.9292    0.5000
                                                         8  H           -1.0729    0.0000    0.5000


 Interatomic Distance Matrix (Angstrom)
 --------------------------------------

   1)     0.000
   2)     1.073   0.000
   3)     1.073   1.858   0.000
   4)     1.073   1.858   1.858   0.000
   5)     0.500   1.184   1.183   1.184   0.000
   6)     1.184   0.500   1.924   1.924   1.073   0.000
   7)     1.184   1.924   0.500   1.924   1.072   1.858   0.000
   8)     1.184   1.924   1.924   0.500   1.073   1.858   1.858   0.000

 Min. Distance =    0.5000
 Max. Distance =    1.9244



 =====================================
 S Y M M E T R Y ,   E L E C T R O N S
 =====================================
  
 Symmetry: NOSYM

 Irreducible Representations, including subspecies
 -------------------------------------------------
 A


 Configuration of Valence Electrons
 ==================================
 ( determined in the SCF procedure )

 Total:   9 (Spin-A)  + 9 (Spin-B)

 Net Charge: 0 (Nuclei minus Electrons)
 Spin polar: 0 (Spin_A minus Spin_B electrons)

 Aufbau principle for MO occupations will be applied through SCF cycle no.     150
 Thereafter, the program will assign electrons to MOs that are spatially
 similar to the occupied MOs in a "reference" cycle ("KeepOrbitals").
 The reference cycle is always the PREVIOUS cycle: it will evolve with
 the SCF procedure.
1
 ***************************************************************************************************



                                      ****************************************
                                      *  B U I L D : (Fragments, Functions)  *
                                      ****************************************
  

 The individual fragments are copies of the corresponding 'Master' fragments defined on the fragment files.
 However, they may have been rotated (and translated) with respect to the Master. The local coordinate axes
 of each fragment (which define for instance the spatial orientation in the current molecule of a fragment
 P:x orbital) are not necessarily those of the molecule.
 The local frame (if different from the molecular one) is printed to enable an interpretation of the expan-
 sion of an MO in Fragment Orbitals.



                                             *************************
                                             *  Fragment Type : Me1  *
                                             *************************
  

 Fragment no.    1   (in the list of all fragments)
 -----------------
 The local coordinate frame is identical to the molecular frame.

 Check Atomic Coordinates:

                  Master (on file)          After Computed Tranformation               As specified on Input
           ----------------------------     ----------------------------     ---------------------------------
     1)     0.00000   0.00000   0.00000      0.00000   0.00000   0.00000       1   0.00000   0.00000   0.00000
     2)     0.53645  -0.92915   0.00000      0.53645  -0.92915   0.00000       2   0.53645  -0.92915   0.00000
     3)     0.53645   0.92915   0.00000      0.53645   0.92915   0.00000       3   0.53645   0.92915   0.00000
     4)    -1.07289   0.00000   0.00000     -1.07289   0.00000   0.00000       4  -1.07289   0.00000   0.00000



                                             *************************
                                             *  Fragment Type : Me2  *
                                             *************************
  

 Fragment no.    2   (in the list of all fragments)
 -----------------
 The local coordinate frame is identical to the molecular frame.

 Check Atomic Coordinates:

                  Master (on file)          After Computed Tranformation               As specified on Input
           ----------------------------     ----------------------------     ---------------------------------
     1)     0.00000   0.00064   0.00000      0.00000   0.00064   0.50000       5   0.00000   0.00064   0.50000
     2)     0.53645  -0.92915   0.00000      0.53645  -0.92915   0.50000       6   0.53645  -0.92915   0.50000
     3)     0.53645   0.92915   0.00000      0.53645   0.92915   0.50000       7   0.53645   0.92915   0.50000
     4)    -1.07289   0.00000   0.00000     -1.07289   0.00000   0.50000       8  -1.07289   0.00000   0.50000



 =======
 S F O s  ***  (Symmetrized Fragment Orbitals)  ***
 =======
  
 SFOs are linear combinations of (valence) Fragment Orbitals (FOs), such that the SFOs transform as the
 irreducible representations of the (molecular) symmetry group. Each SFO is therefore characterized by
 an irrep of the molecule and by a few (or only one) generating FOs.
 The SFOs constitute a symmetry-adapted basis for the Fock matrix. The MO eigenvector coefficients in
 this basis provide a direct interpretation of the MOs in terms of Frontier Orbital Theory.

 The SFOs are combined with auxiliary Core Functions (CFs) to ensure orthogonalization on the (frozen)
 Core Orbitals (COs). The Core-orthogonalized SFOs (CSFOs) constitute the true Fock basis.

 The FOs, and hence also the (C)SFOs are combinations of the elementary basis functions (BAS). The basis
 functions that participate in the description of the SFOs depend on the irrep. The indices of the
 involved functions are printed below for each irrep.
 (The complete list of primitive basis functions is printed in another section)

 Total nr. of (C)SFOs (summation over all irreps) :   118

 NOTE: a (C)SFO that is defined as a combination of more than one FO is usually NOT normalized.



                                       === A ===
 Nr. of SFOs :  118
 Cartesian basis functions that participate in this irrep (total number =   132) :
      1     2     3     4     5     6     9    12     7    10
     13     8    11    14    15    16    17    18    19    20
     21    22    23    24    25    26    27    28    29    30
     31    32    33    34    35    36    37    38    39    40
     41    42    43    44    45    46    47    48    49    50
     51    52    53    54    55    56    57    58    59    60
     61    62    63    64    65    66    67    68    69    70
     71    72    75    78    73    76    79    74    77    80
     81    82    83    84    85    86    87    88    89    90
     91    92    93    94    95    96    97    98    99   100
    101   102   103   104   105   106   107   108   109   110
    111   112   113   114   115   116   117   118   119   120
    121   122   123   124   125   126   127   128   129   130
    131   132

  SPIN  SFO   (index    Fragment               GeneratinExpansion in Fragment Orbitals
       indx  incl.CFs)   Occup   Orb.Energy   FragmentType  Coeff.   Orbital     on Fragment
 -------------------------------------------------------------------------------------------
   A     1       1       1.000      -9.927 au  Me1           1.00      1 A               1
                             (    -270.140 eV)
   B                     1.000      -9.918 au
                             (    -269.888 eV)
   A     2       2       1.000      -0.627 au  Me1           1.00      2 A               1
                             (     -17.051 eV)
   B                     1.000      -0.589 au
                             (     -16.030 eV)
   A     3       3       1.000      -0.378 au  Me1           1.00      3 A               1
                             (     -10.292 eV)
   B                     1.000      -0.366 au
                             (      -9.948 eV)
   A     4       4       1.000      -0.378 au  Me1           1.00      4 A               1
                             (     -10.291 eV)
   B                     1.000      -0.366 au
                             (      -9.946 eV)
   A     5       5       1.000      -0.193 au  Me1           1.00      5 A               1
                             (      -5.256 eV)
   B                      --        -0.105 au
                             (      -2.844 eV)
   A     6       6        --        -0.005 au  Me1           1.00      6 A               1
                             (      -0.129 eV)
   B                      --        -0.003 au
                             (      -0.082 eV)
   A     7       7        --         0.049 au  Me1           1.00      7 A               1
                             (       1.346 eV)
   B                      --         0.050 au
                             (       1.364 eV)
   A     8       8        --         0.049 au  Me1           1.00      8 A               1
                             (       1.347 eV)
   B                      --         0.050 au
                             (       1.365 eV)
   A     9       9        --         0.155 au  Me1           1.00      9 A               1
                             (       4.225 eV)
   B                      --         0.155 au
                             (       4.229 eV)
   A    10      10        --         0.155 au  Me1           1.00     10 A               1
                             (       4.225 eV)
   B                      --         0.155 au
                             (       4.229 eV)
   A    11      11        --         0.170 au  Me1           1.00     11 A               1
                             (       4.613 eV)
   B                      --         0.202 au
                             (       5.493 eV)
   A    12      12        --         0.222 au  Me1           1.00     12 A               1
                             (       6.046 eV)
   B                      --         0.245 au
                             (       6.674 eV)
   A    13      13        --         0.387 au  Me1           1.00     13 A               1
                             (      10.527 eV)
   B                      --         0.397 au
                             (      10.803 eV)
   A    14      14        --         0.387 au  Me1           1.00     14 A               1
                             (      10.528 eV)
   B                      --         0.397 au
                             (      10.804 eV)
   A    15      15        --         0.482 au  Me1           1.00     15 A               1
                             (      13.105 eV)
   B                      --         0.498 au
                             (      13.542 eV)
   A    16      16        --         0.482 au  Me1           1.00     16 A               1
                             (      13.105 eV)
   B                      --         0.498 au
                             (      13.543 eV)
   A    17      17        --         0.662 au  Me1           1.00     17 A               1
                             (      18.010 eV)
   B                      --         0.711 au
                             (      19.338 eV)
   A    18      18        --         0.785 au  Me1           1.00     18 A               1
                             (      21.363 eV)
   B                      --         0.780 au
                             (      21.236 eV)
   A    19      19        --         0.849 au  Me1           1.00     19 A               1
                             (      23.111 eV)
   B                      --         0.849 au
                             (      23.102 eV)
   A    20      20        --         0.849 au  Me1           1.00     20 A               1
                             (      23.112 eV)
   B                      --         0.849 au
                             (      23.103 eV)
   A    21      21        --         0.918 au  Me1           1.00     21 A               1
                             (      24.987 eV)
   B                      --         0.938 au
                             (      25.525 eV)
   A    22      22        --         1.137 au  Me1           1.00     22 A               1
                             (      30.932 eV)
   B                      --         1.188 au
                             (      32.338 eV)
   A    23      23        --         1.383 au  Me1           1.00     23 A               1
                             (      37.639 eV)
   B                      --         1.388 au
                             (      37.758 eV)
   A    24      24        --         1.383 au  Me1           1.00     24 A               1
                             (      37.640 eV)
   B                      --         1.388 au
                             (      37.758 eV)
   A    25      25        --         1.585 au  Me1           1.00     25 A               1
                             (      43.130 eV)
   B                      --         1.636 au
                             (      44.515 eV)
   A    26      26        --         1.585 au  Me1           1.00     26 A               1
                             (      43.135 eV)
   B                      --         1.636 au
                             (      44.521 eV)
   A    27      27        --         1.644 au  Me1           1.00     27 A               1
                             (      44.745 eV)
   B                      --         1.651 au
                             (      44.921 eV)
   A    28      28        --         1.900 au  Me1           1.00     28 A               1
                             (      51.705 eV)
   B                      --         1.912 au
                             (      52.027 eV)
   A    29      29        --         1.900 au  Me1           1.00     29 A               1
                             (      51.708 eV)
   B                      --         1.912 au
                             (      52.031 eV)
   A    30      30        --         2.242 au  Me1           1.00     30 A               1
                             (      61.015 eV)
   B                      --         2.280 au
                             (      62.041 eV)
   A    31      31        --         2.268 au  Me1           1.00     31 A               1
                             (      61.719 eV)
   B                      --         2.280 au
                             (      62.048 eV)
   A    32      32        --         2.268 au  Me1           1.00     32 A               1
                             (      61.723 eV)
   B                      --         2.333 au
                             (      63.478 eV)
   A    33      33        --         2.594 au  Me1           1.00     33 A               1
                             (      70.577 eV)
   B                      --         2.610 au
                             (      71.018 eV)
   A    34      34        --         2.594 au  Me1           1.00     34 A               1
                             (      70.589 eV)
   B                      --         2.610 au
                             (      71.031 eV)
   A    35      35        --         2.791 au  Me1           1.00     35 A               1
                             (      75.950 eV)
   B                      --         2.805 au
                             (      76.340 eV)
   A    36      36        --         2.807 au  Me1           1.00     36 A               1
                             (      76.369 eV)
   B                      --         2.810 au
                             (      76.461 eV)
   A    37      37        --         2.809 au  Me1           1.00     37 A               1
                             (      76.432 eV)
   B                      --         2.811 au
                             (      76.480 eV)
   A    38      38        --         2.809 au  Me1           1.00     38 A               1
                             (      76.442 eV)
   B                      --         2.811 au
                             (      76.492 eV)
   A    39      39        --         3.094 au  Me1           1.00     39 A               1
                             (      84.186 eV)
   B                      --         3.154 au
                             (      85.819 eV)
   A    40      40        --         3.262 au  Me1           1.00     40 A               1
                             (      88.775 eV)
   B                      --         3.263 au
                             (      88.796 eV)
   A    41      41        --         3.434 au  Me1           1.00     41 A               1
                             (      93.456 eV)
   B                      --         3.494 au
                             (      95.072 eV)
   A    42      42        --         3.899 au  Me1           1.00     42 A               1
                             (     106.085 eV)
   B                      --         3.928 au
                             (     106.896 eV)
   A    43      43        --         3.899 au  Me1           1.00     43 A               1
                             (     106.088 eV)
   B                      --         3.928 au
                             (     106.898 eV)
   A    44      44        --         4.037 au  Me1           1.00     44 A               1
                             (     109.856 eV)
   B                      --         4.070 au
                             (     110.757 eV)
   A    45      45        --         4.037 au  Me1           1.00     45 A               1
                             (     109.856 eV)
   B                      --         4.070 au
                             (     110.758 eV)
   A    46      46        --         4.447 au  Me1           1.00     46 A               1
                             (     121.017 eV)
   B                      --         4.488 au
                             (     122.115 eV)
   A    47      47        --         4.447 au  Me1           1.00     47 A               1
                             (     121.020 eV)
   B                      --         4.488 au
                             (     122.120 eV)
   A    48      48        --         4.790 au  Me1           1.00     48 A               1
                             (     130.347 eV)
   B                      --         4.795 au
                             (     130.481 eV)
   A    49      49        --         5.378 au  Me1           1.00     49 A               1
                             (     146.347 eV)
   B                      --         5.402 au
                             (     146.983 eV)
   A    50      50        --         5.378 au  Me1           1.00     50 A               1
                             (     146.348 eV)
   B                      --         5.402 au
                             (     146.985 eV)
   A    51      51        --         5.647 au  Me1           1.00     51 A               1
                             (     153.674 eV)
   B                      --         5.693 au
                             (     154.901 eV)
   A    52      52        --         5.647 au  Me1           1.00     52 A               1
                             (     153.675 eV)
   B                      --         5.693 au
                             (     154.906 eV)
   A    53      53        --         6.083 au  Me1           1.00     53 A               1
                             (     165.517 eV)
   B                      --         6.108 au
                             (     166.218 eV)
   A    54      54        --         6.137 au  Me1           1.00     54 A               1
                             (     166.988 eV)
   B                      --         6.208 au
                             (     168.939 eV)
   A    55      55        --         6.974 au  Me1           1.00     55 A               1
                             (     189.779 eV)
   B                      --         6.985 au
                             (     190.072 eV)
   A    56      56        --         7.391 au  Me1           1.00     56 A               1
                             (     201.111 eV)
   B                      --         7.407 au
                             (     201.555 eV)
   A    57      57        --         7.391 au  Me1           1.00     57 A               1
                             (     201.113 eV)
   B                      --         7.407 au
                             (     201.555 eV)
   A    58      58        --         7.457 au  Me1           1.00     58 A               1
                             (     202.918 eV)
   B                      --         7.499 au
                             (     204.049 eV)
   A    59      59        --        53.133 au  Me1           1.00     59 A               1
                             (    1445.822 eV)
   B                      --        53.157 au
                             (    1446.466 eV)
   A    60      60       1.000      -9.918 au  Me2           1.00      1 A               2
                             (    -269.888 eV)
   B                     1.000      -9.927 au
                             (    -270.139 eV)
   A    61      61       1.000      -0.589 au  Me2           1.00      2 A               2
                             (     -16.030 eV)
   B                     1.000      -0.627 au
                             (     -17.051 eV)
   A    62      62       1.000      -0.366 au  Me2           1.00      3 A               2
                             (      -9.951 eV)
   B                     1.000      -0.378 au
                             (     -10.295 eV)
   A    63      63       1.000      -0.365 au  Me2           1.00      4 A               2
                             (      -9.943 eV)
   B                     1.000      -0.378 au
                             (     -10.287 eV)
   A    64      64        --        -0.105 au  Me2           1.00      5 A               2
                             (      -2.844 eV)
   B                     1.000      -0.193 au
                             (      -5.256 eV)
   A    65      65        --        -0.003 au  Me2           1.00      6 A               2
                             (      -0.082 eV)
   B                      --        -0.005 au
                             (      -0.129 eV)
   A    66      66        --         0.050 au  Me2           1.00      7 A               2
                             (       1.364 eV)
   B                      --         0.049 au
                             (       1.346 eV)
   A    67      67        --         0.050 au  Me2           1.00      8 A               2
                             (       1.365 eV)
   B                      --         0.049 au
                             (       1.347 eV)
   A    68      68        --         0.155 au  Me2           1.00      9 A               2
                             (       4.226 eV)
   B                      --         0.155 au
                             (       4.222 eV)
   A    69      69        --         0.156 au  Me2           1.00     10 A               2
                             (       4.232 eV)
   B                      --         0.155 au
                             (       4.228 eV)
   A    70      70        --         0.202 au  Me2           1.00     11 A               2
                             (       5.493 eV)
   B                      --         0.170 au
                             (       4.613 eV)
   A    71      71        --         0.245 au  Me2           1.00     12 A               2
                             (       6.674 eV)
   B                      --         0.222 au
                             (       6.046 eV)
   A    72      72        --         0.397 au  Me2           1.00     13 A               2
                             (      10.798 eV)
   B                      --         0.387 au
                             (      10.523 eV)
   A    73      73        --         0.397 au  Me2           1.00     14 A               2
                             (      10.808 eV)
   B                      --         0.387 au
                             (      10.533 eV)
   A    74      74        --         0.498 au  Me2           1.00     15 A               2
                             (      13.541 eV)
   B                      --         0.482 au
                             (      13.104 eV)
   A    75      75        --         0.498 au  Me2           1.00     16 A               2
                             (      13.544 eV)
   B                      --         0.482 au
                             (      13.106 eV)
   A    76      76        --         0.711 au  Me2           1.00     17 A               2
                             (      19.338 eV)
   B                      --         0.662 au
                             (      18.010 eV)
   A    77      77        --         0.780 au  Me2           1.00     18 A               2
                             (      21.236 eV)
   B                      --         0.785 au
                             (      21.363 eV)
   A    78      78        --         0.849 au  Me2           1.00     19 A               2
                             (      23.101 eV)
   B                      --         0.849 au
                             (      23.110 eV)
   A    79      79        --         0.849 au  Me2           1.00     20 A               2
                             (      23.104 eV)
   B                      --         0.849 au
                             (      23.113 eV)
   A    80      80        --         0.938 au  Me2           1.00     21 A               2
                             (      25.525 eV)
   B                      --         0.918 au
                             (      24.987 eV)
   A    81      81        --         1.188 au  Me2           1.00     22 A               2
                             (      32.338 eV)
   B                      --         1.137 au
                             (      30.932 eV)
   A    82      82        --         1.387 au  Me2           1.00     23 A               2
                             (      37.755 eV)
   B                      --         1.383 au
                             (      37.637 eV)
   A    83      83        --         1.388 au  Me2           1.00     24 A               2
                             (      37.761 eV)
   B                      --         1.383 au
                             (      37.642 eV)
   A    84      84        --         1.636 au  Me2           1.00     25 A               2
                             (      44.506 eV)
   B                      --         1.585 au
                             (      43.120 eV)
   A    85      85        --         1.636 au  Me2           1.00     26 A               2
                             (      44.530 eV)
   B                      --         1.586 au
                             (      43.144 eV)
   A    86      86        --         1.651 au  Me2           1.00     27 A               2
                             (      44.921 eV)
   B                      --         1.644 au
                             (      44.745 eV)
   A    87      87        --         1.912 au  Me2           1.00     28 A               2
                             (      52.027 eV)
   B                      --         1.900 au
                             (      51.704 eV)
   A    88      88        --         1.912 au  Me2           1.00     29 A               2
                             (      52.031 eV)
   B                      --         1.900 au
                             (      51.709 eV)
   A    89      89        --         2.280 au  Me2           1.00     30 A               2
                             (      62.045 eV)
   B                      --         2.242 au
                             (      61.019 eV)
   A    90      90        --         2.280 au  Me2           1.00     31 A               2
                             (      62.048 eV)
   B                      --         2.268 au
                             (      61.719 eV)
   A    91      91        --         2.333 au  Me2           1.00     32 A               2
                             (      63.474 eV)
   B                      --         2.268 au
                             (      61.719 eV)
   A    92      92        --         2.610 au  Me2           1.00     33 A               2
                             (      71.013 eV)
   B                      --         2.593 au
                             (      70.573 eV)
   A    93      93        --         2.611 au  Me2           1.00     34 A               2
                             (      71.035 eV)
   B                      --         2.594 au
                             (      70.593 eV)
   A    94      94        --         2.805 au  Me2           1.00     35 A               2
                             (      76.339 eV)
   B                      --         2.791 au
                             (      75.950 eV)
   A    95      95        --         2.810 au  Me2           1.00     36 A               2
                             (      76.461 eV)
   B                      --         2.807 au
                             (      76.369 eV)
   A    96      96        --         2.810 au  Me2           1.00     37 A               2
                             (      76.477 eV)
   B                      --         2.809 au
                             (      76.428 eV)
   A    97      97        --         2.811 au  Me2           1.00     38 A               2
                             (      76.495 eV)
   B                      --         2.809 au
                             (      76.446 eV)
   A    98      98        --         3.154 au  Me2           1.00     39 A               2
                             (      85.819 eV)
   B                      --         3.094 au
                             (      84.186 eV)
   A    99      99        --         3.263 au  Me2           1.00     40 A               2
                             (      88.796 eV)
   B                      --         3.262 au
                             (      88.775 eV)
   A   100     100        --         3.494 au  Me2           1.00     41 A               2
                             (      95.072 eV)
   B                      --         3.434 au
                             (      93.456 eV)
   A   101     101        --         3.927 au  Me2           1.00     42 A               2
                             (     106.856 eV)
   B                      --         3.897 au
                             (     106.047 eV)
   A   102     102        --         3.930 au  Me2           1.00     43 A               2
                             (     106.938 eV)
   B                      --         3.900 au
                             (     106.126 eV)
   A   103     103        --         4.069 au  Me2           1.00     44 A               2
                             (     110.736 eV)
   B                      --         4.036 au
                             (     109.834 eV)
   A   104     104        --         4.071 au  Me2           1.00     45 A               2
                             (     110.779 eV)
   B                      --         4.038 au
                             (     109.877 eV)
   A   105     105        --         4.487 au  Me2           1.00     46 A               2
                             (     122.109 eV)
   B                      --         4.447 au
                             (     121.007 eV)
   A   106     106        --         4.488 au  Me2           1.00     47 A               2
                             (     122.126 eV)
   B                      --         4.448 au
                             (     121.029 eV)
   A   107     107        --         4.795 au  Me2           1.00     48 A               2
                             (     130.480 eV)
   B                      --         4.790 au
                             (     130.347 eV)
   A   108     108        --         5.402 au  Me2           1.00     49 A               2
                             (     146.983 eV)
   B                      --         5.378 au
                             (     146.346 eV)
   A   109     109        --         5.402 au  Me2           1.00     50 A               2
                             (     146.985 eV)
   B                      --         5.378 au
                             (     146.350 eV)
   A   110     110        --         5.692 au  Me2           1.00     51 A               2
                             (     154.886 eV)
   B                      --         5.647 au
                             (     153.657 eV)
   A   111     111        --         5.693 au  Me2           1.00     52 A               2
                             (     154.921 eV)
   B                      --         5.648 au
                             (     153.692 eV)
   A   112     112        --         6.108 au  Me2           1.00     53 A               2
                             (     166.219 eV)
   B                      --         6.083 au
                             (     165.517 eV)
   A   113     113        --         6.208 au  Me2           1.00     54 A               2
                             (     168.939 eV)
   B                      --         6.137 au
                             (     166.988 eV)
   A   114     114        --         6.985 au  Me2           1.00     55 A               2
                             (     190.071 eV)
   B                      --         6.974 au
                             (     189.778 eV)
   A   115     115        --         7.406 au  Me2           1.00     56 A               2
                             (     201.536 eV)
   B                      --         7.390 au
                             (     201.093 eV)
   A   116     116        --         7.408 au  Me2           1.00     57 A               2
                             (     201.576 eV)
   B                      --         7.391 au
                             (     201.132 eV)
   A   117     117        --         7.499 au  Me2           1.00     58 A               2
                             (     204.048 eV)
   B                      --         7.457 au
                             (     202.918 eV)
   A   118     118        --        53.157 au  Me2           1.00     59 A               2
                             (    1446.467 eV)
   B                      --        53.133 au
                             (    1445.823 eV)



 ================================
 (Slater-type)  F U N C T I O N S  ***  (Basis and Fit)  ***
 ================================
  

 Atom Type    1  (C)
 ==============

 Valence Basis Sets:  10
 -----------------------
   1 S    7.680000
   1 S    5.000000
   2 S    1.280000
   2 S    2.100000
   2 S    4.600000
   2 P    0.820000
   2 P    1.480000
   2 P    2.940000
   3 D    2.200000
   4 F    3.300000

 Atom Type    2  (H)
 ==============

 Valence Basis Sets:   5
 -----------------------
   1 S    0.690000
   1 S    0.920000
   1 S    1.580000
   2 P    1.250000
   3 D    2.500000

 Atom Type    3  (C)
 ==============

 Valence Basis Sets:  10
 -----------------------
   1 S    7.680000
   1 S    5.000000
   2 S    1.280000
   2 S    2.100000
   2 S    4.600000
   2 P    0.820000
   2 P    1.480000
   2 P    2.940000
   3 D    2.200000
   4 F    3.300000

 Atom Type    4  (H)
 ==============

 Valence Basis Sets:   5
 -----------------------
   1 S    0.690000
   1 S    0.920000
   1 S    1.580000
   2 P    1.250000
   3 D    2.500000


 BAS: List of all Elementary Cartesian Basis Functions
 =====================================================

 The numbering in the list below (to the right of the function characteristics) is referred
 to in print-outs of MO eigenvectors and Mulliken populations in the BAS representation
 (as contrasted to the SFO representation).

 Notes:
 1. The functions are characterized by a polynomial prefactor (powers of x,y,z and r) and
    an exponential decay factor alpha.
 2. Since the basis sets are specific for an atom TYPE, the individual functions occur on
    all atoms of that type.
 3. The word 'Core' in the left margin signals that it is a Core Function (CF) : not a
    degree of freedom in the valence set, but only used to ensure orthogonalization of
    the other valence basis functions on the frozen Core Orbitals.


 (power of) X  Y  Z  R     Alpha  on Atom
            ==========     =====     ==========

 C                                    1
                                  ---------------------------------------------------------------------------
            0  0  0  0     7.680      1
            0  0  0  0     5.000      2
            0  0  0  1     1.280      3
            0  0  0  1     2.100      4
            0  0  0  1     4.600      5
            1  0  0  0     0.820      6
            0  1  0  0     0.820      7
            0  0  1  0     0.820      8
            1  0  0  0     1.480      9
            0  1  0  0     1.480     10
            0  0  1  0     1.480     11
            1  0  0  0     2.940     12
            0  1  0  0     2.940     13
            0  0  1  0     2.940     14
            2  0  0  0     2.200     15
            1  1  0  0     2.200     16
            1  0  1  0     2.200     17
            0  2  0  0     2.200     18
            0  1  1  0     2.200     19
            0  0  2  0     2.200     20
            3  0  0  0     3.300     21
            2  1  0  0     3.300     22
            2  0  1  0     3.300     23
            1  2  0  0     3.300     24
            1  1  1  0     3.300     25
            1  0  2  0     3.300     26
            0  3  0  0     3.300     27
            0  2  1  0     3.300     28
            0  1  2  0     3.300     29
            0  0  3  0     3.300     30

 H                                    2    3    4
                                  ---------------------------------------------------------------------------
            0  0  0  0     0.690     31   43   55
            0  0  0  0     0.920     32   44   56
            0  0  0  0     1.580     33   45   57
            1  0  0  0     1.250     34   46   58
            0  1  0  0     1.250     35   47   59
            0  0  1  0     1.250     36   48   60
            2  0  0  0     2.500     37   49   61
            1  1  0  0     2.500     38   50   62
            1  0  1  0     2.500     39   51   63
            0  2  0  0     2.500     40   52   64
            0  1  1  0     2.500     41   53   65
            0  0  2  0     2.500     42   54   66

 C                                    5
                                  ---------------------------------------------------------------------------
            0  0  0  0     7.680     67
            0  0  0  0     5.000     68
            0  0  0  1     1.280     69
            0  0  0  1     2.100     70
            0  0  0  1     4.600     71
            1  0  0  0     0.820     72
            0  1  0  0     0.820     73
            0  0  1  0     0.820     74
            1  0  0  0     1.480     75
            0  1  0  0     1.480     76
            0  0  1  0     1.480     77
            1  0  0  0     2.940     78
            0  1  0  0     2.940     79
            0  0  1  0     2.940     80
            2  0  0  0     2.200     81
            1  1  0  0     2.200     82
            1  0  1  0     2.200     83
            0  2  0  0     2.200     84
            0  1  1  0     2.200     85
            0  0  2  0     2.200     86
            3  0  0  0     3.300     87
            2  1  0  0     3.300     88
            2  0  1  0     3.300     89
            1  2  0  0     3.300     90
            1  1  1  0     3.300     91
            1  0  2  0     3.300     92
            0  3  0  0     3.300     93
            0  2  1  0     3.300     94
            0  1  2  0     3.300     95
            0  0  3  0     3.300     96

 H                                    6    7    8
                                  ---------------------------------------------------------------------------
            0  0  0  0     0.690     97  109  121
            0  0  0  0     0.920     98  110  122
            0  0  0  0     1.580     99  111  123
            1  0  0  0     1.250    100  112  124
            0  1  0  0     1.250    101  113  125
            0  0  1  0     1.250    102  114  126
            2  0  0  0     2.500    103  115  127
            1  1  0  0     2.500    104  116  128
            1  0  1  0     2.500    105  117  129
            0  2  0  0     2.500    106  118  130
            0  1  1  0     2.500    107  119  131
            0  0  2  0     2.500    108  120  132

 Total number of charge fitting functions (nprimf)       468
 Total number of Cartesian basis functions (naos)        132
 Total number of Cartesian core functions  (ncos)          0

1
 ***************************************************************************************************



                                              ***********************
                                              *  T E C H N I C A L  *
                                              ***********************
  



 =============================================================
 P A R A L L E L I Z A T I O N  and  V E C T O R I Z A T I O N
 =============================================================
  
 Nr of parallel processes:                               10
 Maximum vector length in NumInt loops:                 128



 =====================
 S C F   U P D A T E S
 =====================
  
 Max. nr. of cycles:                               300
 Convergence criterion:                              0.0000010000
   secondary criterion:                              0.0010000000

 Mix parameter (when DIIS does not apply):           0.2000000000
 Mixed ADIIS+SDIIS will be used                  
    Max number of expansion vectors:                10
    Pure ADIIS when Max([F,P]) is above              0.1000000000
    Pure SDIIS when Max([F,P]) is below              0.0010000000
 Automatic ElectronSmearing (in case of problematic SCF convergence) disabled



 =================
 P R E C I S I O N  ***  (General: NumInt, NeglectFunctionTails, ...)  ***
 =================
  

 NumInt:           Target precision:                 4.0000000000
 -------           Initial precision:                4.0000000000
                   Min. precision (optimization):    4.0000000000

 Neglect Functions:          Basis functions:        0.1000000000E-05
 ------------------          Fit functions:          0.1000000000E-05



 ===========================
 L I N E A R   S C A L I N G
 ===========================
  

 Cut-off radii density fit:                        0.1000000000E-07
 Overlap cut-off criterion AO matrix elements:     0.1000000000E-05
 Cut-offs for Coulomb potential and fitted density:0.1000000000E-07
 Cut-off criterion for Coulomb multipole terms:    0.1000000000E-07
 Progressive Convergence parameter:                 0.000000000    
1
 ***************************************************************************************************



                                            ***************************
                                            *  C O M P U T A T I O N  *
                                            ***************************
  

 Number of elements of the density matrix on this node (used, total):      1119      8778



 ===========================================
 Numerical Integration : Fuzzy Cells (Becke)
 ===========================================
  
 Becke grid quality: NORMAL         
  
 Lebedev angular grid order:             min:  11 max:  23
 Nr. of radial points:                   min:  46 max:  52

 Total nr. of points:      49604
 Nr. of blocks:              388
 Block length:               128
 Nr. of dummy points:         60


 Test of Precision of the Numerical Integration Grid
 ===================================================

 Integral of the Total Core Density:                   0.00000000000000



 ========================
 Density Fitting (zlmFit)
 ========================
  
 ZlmFit Fit Quality: NORMAL         
  
 Max L-expansion:                        min:   6 max:   7
 Nr. of radial interpolation points:     min:  39 max:  48



 =====
 S C F  ***  ScaSCF  ***
 =====
  
 Initial density matrix is calculated as sum of fragments

 CYCLE    1
 SCF Error: norm([F,P])=      8.639351623046, max([F,P])=      2.581005187321
 ***** SPIN 1 *****
 orbitals (Q,E):
 ---------------
 A :1...19           ( 1.00   -11.8642)  ( 1.00   -10.8314)  ( 1.00    -1.2808)  ( 1.00    -1.2806)
                     ( 1.00    -1.1655)  ( 1.00    -0.4508)  ( 1.00    -0.3839)  ( 1.00    -0.3835)
                     ( 1.00    -0.3149)  ( 0.00    -0.1810)  ( 0.00     0.0036)  ( 0.00     0.0036)
                     ( 0.00     0.0210)  ( 0.00     0.0211)  ( 0.00     0.0328)  ( 0.00     0.0402)
                     ( 0.00     0.1163)  ( 0.00     0.1163)  ( 0.00     0.2008)
 ***** SPIN 2 *****
 orbitals (Q,E):
 ---------------
 A :1...19           ( 1.00   -11.8642)  ( 1.00   -10.8314)  ( 1.00    -1.2808)  ( 1.00    -1.2806)
                     ( 1.00    -1.1655)  ( 1.00    -0.4508)  ( 1.00    -0.3839)  ( 1.00    -0.3835)
                     ( 1.00    -0.3149)  ( 0.00    -0.1810)  ( 0.00     0.0036)  ( 0.00     0.0036)
                     ( 0.00     0.0210)  ( 0.00     0.0211)  ( 0.00     0.0328)  ( 0.00     0.0402)
                     ( 0.00     0.1163)  ( 0.00     0.1163)  ( 0.00     0.2008)
  
 Spin polar: 0 (Spin_A minus Spin_B electrons)

 CYCLE    2
   MIX coefficients:  0.8000  0.2000
 SCF Error: norm([F,P])=      2.478800030444, max([F,P])=      0.232047406239
 ***** SPIN 1 *****
 orbitals (Q,E):
 ---------------
 A :1...10           ( 1.00   -11.4442)  ( 1.00   -10.4158)  ( 1.00    -1.1009)  ( 1.00    -1.1006)
                     ( 1.00    -1.0454)  ( 1.00    -0.3538)  ( 1.00    -0.3114)  ( 1.00    -0.3111)
                     ( 1.00    -0.1440)  ( 0.00    -0.1181)
 ***** SPIN 2 *****
 orbitals (Q,E):
 ---------------
 A :1...10           ( 1.00   -11.4442)  ( 1.00   -10.4158)  ( 1.00    -1.1009)  ( 1.00    -1.1006)
                     ( 1.00    -1.0454)  ( 1.00    -0.3538)  ( 1.00    -0.3114)  ( 1.00    -0.3111)
                     ( 1.00    -0.1440)  ( 0.00    -0.1181)
  
 Spin polar: 0 (Spin_A minus Spin_B electrons)

 CYCLE    3
  SDIIS (wt  0.000): -0.3426  1.3426
 A-DIIS (wt  1.000):  0.0000  1.0000
  DIIS coefficients:  0.0000  1.0000
 SCF Error: norm([F,P])=      0.767734449204, max([F,P])=      0.055929134536
 ***** SPIN 1 *****
 orbitals (Q,E):
 ---------------
 A :1...10           ( 1.00   -10.7846)  ( 1.00    -9.7630)  ( 1.00    -0.9163)  ( 1.00    -0.8999)
                     ( 1.00    -0.8996)  ( 1.00    -0.2491)  ( 1.00    -0.1931)  ( 1.00    -0.1928)
                     ( 1.00    -0.0634)  ( 0.00    -0.0130)
 ***** SPIN 2 *****
 orbitals (Q,E):
 ---------------
 A :1...10           ( 1.00   -10.7846)  ( 1.00    -9.7630)  ( 1.00    -0.9163)  ( 1.00    -0.8999)
                     ( 1.00    -0.8996)  ( 1.00    -0.2491)  ( 1.00    -0.1931)  ( 1.00    -0.1928)
                     ( 1.00    -0.0634)  ( 0.00    -0.0130)
  
 Spin polar: 0 (Spin_A minus Spin_B electrons)

 CYCLE    4
  SDIIS (wt  0.000): -0.1418  0.8797  0.2620
 A-DIIS (wt  1.000):  0.0000  0.7625  0.2375
  DIIS coefficients:  0.0000  0.7625  0.2375
 SCF Error: norm([F,P])=      1.243771966806, max([F,P])=      0.098333577526
 ***** SPIN 1 *****
 orbitals (Q,E):
 ---------------
 A :1...10           ( 1.00   -11.0822)  ( 1.00   -10.0624)  ( 1.00    -1.0422)  ( 1.00    -1.0419)
                     ( 1.00    -1.0342)  ( 1.00    -0.3606)  ( 1.00    -0.2841)  ( 1.00    -0.2838)
                     ( 1.00    -0.1324)  ( 0.00    -0.0827)
 ***** SPIN 2 *****
 orbitals (Q,E):
 ---------------
 A :1...10           ( 1.00   -11.0822)  ( 1.00   -10.0624)  ( 1.00    -1.0422)  ( 1.00    -1.0419)
                     ( 1.00    -1.0342)  ( 1.00    -0.3606)  ( 1.00    -0.2841)  ( 1.00    -0.2838)
                     ( 1.00    -0.1324)  ( 0.00    -0.0827)
  
 Spin polar: 0 (Spin_A minus Spin_B electrons)

 CYCLE    5
  SDIIS (wt  0.736): -0.0311  0.3443 -0.0791  0.7659
 A-DIIS (wt  0.264):  0.0000  0.2585  0.0000  0.7415
  DIIS coefficients: -0.0229  0.3216 -0.0582  0.7595
 SCF Error: norm([F,P])=      0.369996487301, max([F,P])=      0.027170462878
 ***** SPIN 1 *****
 orbitals (Q,E):
 ---------------
 A :1...10           ( 1.00   -11.2036)  ( 1.00   -10.1827)  ( 1.00    -1.0540)  ( 1.00    -1.0537)
                     ( 1.00    -1.0282)  ( 1.00    -0.3584)  ( 1.00    -0.2713)  ( 1.00    -0.2709)
                     ( 1.00    -0.1241)  ( 0.00    -0.0875)
 ***** SPIN 2 *****
 orbitals (Q,E):
 ---------------
 A :1...10           ( 1.00   -11.2036)  ( 1.00   -10.1827)  ( 1.00    -1.0540)  ( 1.00    -1.0537)
                     ( 1.00    -1.0282)  ( 1.00    -0.3584)  ( 1.00    -0.2713)  ( 1.00    -0.2709)
                     ( 1.00    -0.1241)  ( 0.00    -0.0875)
  
 Spin polar: 0 (Spin_A minus Spin_B electrons)

 CYCLE    6
  SDIIS (wt  0.926): -0.0044  0.0635 -0.0178  0.2930  0.6657
 A-DIIS (wt  0.074):  0.0000  0.0000  0.0000  0.1243  0.8757
  DIIS coefficients: -0.0041  0.0588 -0.0165  0.2806  0.6811
 SCF Error: norm([F,P])=      0.088877701395, max([F,P])=      0.008280094292
 ***** SPIN 1 *****
 orbitals (Q,E):
 ---------------
 A :1...10           ( 1.00   -11.1890)  ( 1.00   -10.1674)  ( 1.00    -1.0531)  ( 1.00    -1.0528)
                     ( 1.00    -1.0298)  ( 1.00    -0.3524)  ( 1.00    -0.2777)  ( 1.00    -0.2774)
                     ( 1.00    -0.1227)  ( 0.00    -0.0865)
 ***** SPIN 2 *****
 orbitals (Q,E):
 ---------------
 A :1...10           ( 1.00   -11.1890)  ( 1.00   -10.1674)  ( 1.00    -1.0531)  ( 1.00    -1.0528)
                     ( 1.00    -1.0298)  ( 1.00    -0.3524)  ( 1.00    -0.2777)  ( 1.00    -0.2775)
                     ( 1.00    -0.1227)  ( 0.00    -0.0865)
  
 Spin polar: 0 (Spin_A minus Spin_B electrons)

 CYCLE    7
  SDIIS (wt  0.954): -0.0035  0.0194 -0.0148  0.0550  0.4096  0.5342
 A-DIIS (wt  0.046):  0.0000  0.0000  0.0000  0.0000  0.4286  0.5714
  DIIS coefficients: -0.0033  0.0186 -0.0141  0.0525  0.4105  0.5359
 SCF Error: norm([F,P])=      0.072033106798, max([F,P])=      0.005524234450
 ***** SPIN 1 *****
 orbitals (Q,E):
 ---------------
 A :1...10           ( 1.00   -11.2005)  ( 1.00   -10.1792)  ( 1.00    -1.0590)  ( 1.00    -1.0587)
                     ( 1.00    -1.0346)  ( 1.00    -0.3592)  ( 1.00    -0.2804)  ( 1.00    -0.2801)
                     ( 1.00    -0.1279)  ( 0.00    -0.0898)
 ***** SPIN 2 *****
 orbitals (Q,E):
 ---------------
 A :1...10           ( 1.00   -11.2005)  ( 1.00   -10.1792)  ( 1.00    -1.0590)  ( 1.00    -1.0587)
                     ( 1.00    -1.0346)  ( 1.00    -0.3592)  ( 1.00    -0.2804)  ( 1.00    -0.2801)
                     ( 1.00    -0.1279)  ( 0.00    -0.0898)
  
 Spin polar: 0 (Spin_A minus Spin_B electrons)

 CYCLE    8
  SDIIS (wt  1.000):  0.0000 -0.0025  0.0005 -0.0055  0.0604  0.1001  0.8470
  DIIS coefficients:  0.0000 -0.0025  0.0005 -0.0055  0.0604  0.1001  0.8470
 SCF Error: norm([F,P])=      0.003924433162, max([F,P])=      0.000386429575
 ***** SPIN 1 *****
 orbitals (Q,E):
 ---------------
 A :1...10           ( 1.00   -11.1997)  ( 1.00   -10.1785)  ( 1.00    -1.0581)  ( 1.00    -1.0578)
                     ( 1.00    -1.0337)  ( 1.00    -0.3587)  ( 1.00    -0.2797)  ( 1.00    -0.2794)
                     ( 1.00    -0.1273)  ( 0.00    -0.0895)
 ***** SPIN 2 *****
 orbitals (Q,E):
 ---------------
 A :1...10           ( 1.00   -11.1997)  ( 1.00   -10.1785)  ( 1.00    -1.0581)  ( 1.00    -1.0578)
                     ( 1.00    -1.0337)  ( 1.00    -0.3587)  ( 1.00    -0.2797)  ( 1.00    -0.2794)
                     ( 1.00    -0.1273)  ( 0.00    -0.0895)
  
 Spin polar: 0 (Spin_A minus Spin_B electrons)

 CYCLE    9
  SDIIS (wt  1.000):  0.0001 -0.0008  0.0002 -0.0031 -0.0046  0.0064  0.0576  0.9441
  DIIS coefficients:  0.0001 -0.0008  0.0002 -0.0031 -0.0046  0.0064  0.0576  0.9441
 SCF Error: norm([F,P])=      0.000514015548, max([F,P])=      0.000046801407
 ***** SPIN 1 *****
 orbitals (Q,E):
 ---------------
 A :1...10           ( 1.00   -11.1998)  ( 1.00   -10.1785)  ( 1.00    -1.0581)  ( 1.00    -1.0578)
                     ( 1.00    -1.0338)  ( 1.00    -0.3587)  ( 1.00    -0.2797)  ( 1.00    -0.2794)
                     ( 1.00    -0.1273)  ( 0.00    -0.0895)
 ***** SPIN 2 *****
 orbitals (Q,E):
 ---------------
 A :1...10           ( 1.00   -11.1998)  ( 1.00   -10.1785)  ( 1.00    -1.0581)  ( 1.00    -1.0578)
                     ( 1.00    -1.0338)  ( 1.00    -0.3587)  ( 1.00    -0.2797)  ( 1.00    -0.2794)
                     ( 1.00    -0.1273)  ( 0.00    -0.0895)
  
 Spin polar: 0 (Spin_A minus Spin_B electrons)

 CYCLE   10
  SDIIS (wt  1.000):  0.0000 -0.0001  0.0000 -0.0005 -0.0035  0.0001 -0.0227  0.1890  0.8377
  DIIS coefficients:  0.0000 -0.0001  0.0000 -0.0005 -0.0035  0.0001 -0.0227  0.1890  0.8377
 SCF Error: norm([F,P])=      0.000327283655, max([F,P])=      0.000025913806
 ***** SPIN 1 *****
 orbitals (Q,E):
 ---------------
 A :1...10           ( 1.00   -11.1997)  ( 1.00   -10.1784)  ( 1.00    -1.0581)  ( 1.00    -1.0578)
                     ( 1.00    -1.0338)  ( 1.00    -0.3586)  ( 1.00    -0.2797)  ( 1.00    -0.2794)
                     ( 1.00    -0.1273)  ( 0.00    -0.0895)
 ***** SPIN 2 *****
 orbitals (Q,E):
 ---------------
 A :1...10           ( 1.00   -11.1997)  ( 1.00   -10.1784)  ( 1.00    -1.0581)  ( 1.00    -1.0578)
                     ( 1.00    -1.0338)  ( 1.00    -0.3586)  ( 1.00    -0.2797)  ( 1.00    -0.2794)
                     ( 1.00    -0.1273)  ( 0.00    -0.0895)
  
 Spin polar: 0 (Spin_A minus Spin_B electrons)

 CYCLE   11
  SDIIS (wt  1.000): -0.0000  0.0000 -0.0000  0.0001 -0.0016 -0.0006 -0.0227 -0.0113  0.5338  0.5024
  DIIS coefficients: -0.0000  0.0000 -0.0000  0.0001 -0.0016 -0.0006 -0.0227 -0.0113  0.5338  0.5024
 SCF Error: norm([F,P])=      0.000157244538, max([F,P])=      0.000014851653
 ***** SPIN 1 *****
 orbitals (Q,E):
 ---------------
 A :1...10           ( 1.00   -11.1997)  ( 1.00   -10.1784)  ( 1.00    -1.0581)  ( 1.00    -1.0578)
                     ( 1.00    -1.0337)  ( 1.00    -0.3586)  ( 1.00    -0.2797)  ( 1.00    -0.2794)
                     ( 1.00    -0.1272)  ( 0.00    -0.0895)
 ***** SPIN 2 *****
 orbitals (Q,E):
 ---------------
 A :1...10           ( 1.00   -11.1997)  ( 1.00   -10.1784)  ( 1.00    -1.0581)  ( 1.00    -1.0578)
                     ( 1.00    -1.0337)  ( 1.00    -0.3586)  ( 1.00    -0.2797)  ( 1.00    -0.2794)
                     ( 1.00    -0.1272)  ( 0.00    -0.0895)
  
 Spin polar: 0 (Spin_A minus Spin_B electrons)

 CYCLE   12
  SDIIS (wt  1.000):  0.0000 -0.0000  0.0000  0.0002 -0.0003  0.0023 -0.0121 -0.0923 -0.0182  1.1203
  DIIS coefficients:  0.0000 -0.0000  0.0000  0.0002 -0.0003  0.0023 -0.0121 -0.0923 -0.0182  1.1203
 SCF Error: norm([F,P])=      0.000014642569, max([F,P])=      0.000000920616
 ***** SPIN 1 *****
 orbitals (Q,E):
 ---------------
 A :1...10           ( 1.00   -11.1997)  ( 1.00   -10.1784)  ( 1.00    -1.0581)  ( 1.00    -1.0578)
                     ( 1.00    -1.0337)  ( 1.00    -0.3586)  ( 1.00    -0.2797)  ( 1.00    -0.2794)
                     ( 1.00    -0.1272)  ( 0.00    -0.0895)
 ***** SPIN 2 *****
 orbitals (Q,E):
 ---------------
 A :1...10           ( 1.00   -11.1997)  ( 1.00   -10.1784)  ( 1.00    -1.0581)  ( 1.00    -1.0578)
                     ( 1.00    -1.0337)  ( 1.00    -0.3586)  ( 1.00    -0.2797)  ( 1.00    -0.2794)
                     ( 1.00    -0.1272)  ( 0.00    -0.0895)
  
 Spin polar: 0 (Spin_A minus Spin_B electrons)

 CYCLE   13
  SDIIS (wt  1.000):  0.0000 -0.0000  0.0000 -0.0000  0.0004  0.0003 -0.0036 -0.0081 -0.0933  1.1043
  DIIS coefficients:  0.0000 -0.0000  0.0000 -0.0000  0.0004  0.0003 -0.0036 -0.0081 -0.0933  1.1043
 SCF Error: norm([F,P])=      0.000005177166, max([F,P])=      0.000000407576
 ***** SPIN 1 *****
 orbitals (Q,E):
 ---------------
 A :1...10           ( 1.00   -11.1997)  ( 1.00   -10.1784)  ( 1.00    -1.0581)  ( 1.00    -1.0578)
                     ( 1.00    -1.0337)  ( 1.00    -0.3586)  ( 1.00    -0.2797)  ( 1.00    -0.2794)
                     ( 1.00    -0.1272)  ( 0.00    -0.0895)
 ***** SPIN 2 *****
 orbitals (Q,E):
 ---------------
 A :1...10           ( 1.00   -11.1997)  ( 1.00   -10.1784)  ( 1.00    -1.0581)  ( 1.00    -1.0578)
                     ( 1.00    -1.0337)  ( 1.00    -0.3586)  ( 1.00    -0.2797)  ( 1.00    -0.2794)
                     ( 1.00    -0.1272)  ( 0.00    -0.0895)
  
 Spin polar: 0 (Spin_A minus Spin_B electrons)

 SCF CONVERGED

 CYCLE   14
1
 ***************************************************************************************************



                                                *******************
                                                *  R E S U L T S  *
                                                *******************
  
 *** Using FIT density in Focky
  SDIIS (wt  1.000): -0.0000  0.0000  0.0000  0.0001  0.0002 -0.0006 -0.0024 -0.0344  0.3216  0.7155
  DIIS coefficients: -0.0000  0.0000  0.0000  0.0001  0.0002 -0.0006 -0.0024 -0.0344  0.3216  0.7155
 SCF Error: norm([F,P])=      0.000000494938, max([F,P])=      0.000000034587


                                   ***** SPIN 1 *****

 Scaled ZORA Orbital Energies, per Irrep and Spin:
 =================================================
                        Occup              E (au)              E (eV)       Diff (eV) with prev. cycle
                        -----      --------------------        ------       --------------------------
 A
               1        1.000     -0.11199717163874E+02      -304.760               8.47E-07
               2        1.000     -0.10178437595792E+02      -276.969               8.73E-07
               3        1.000     -0.10581065336472E+01       -28.793               1.36E-06
               4        1.000     -0.10578090669308E+01       -28.784               2.84E-07
               5        1.000     -0.10337497444276E+01       -28.130               8.05E-07
               6        1.000     -0.35863166801935E+00        -9.759               1.04E-06
               7        1.000     -0.27967194934308E+00        -7.610               7.75E-08
               8        1.000     -0.27935386414368E+00        -7.602               1.09E-06
               9        1.000     -0.12724972929635E+00        -3.463               8.72E-07
              10        0.000     -0.89515589030601E-01        -2.436
              11        0.000      0.24398235532911E-01         0.664
              12        0.000      0.24493445079230E-01         0.667
              13        0.000      0.32112413799861E-01         0.874
              14        0.000      0.32165802027242E-01         0.875
              15        0.000      0.42616265188725E-01         1.160
              16        0.000      0.94668163323736E-01         2.576
              17        0.000      0.13305332573112E+00         3.621
              18        0.000      0.13328338509642E+00         3.627
              19        0.000      0.22887632647356E+00         6.228
  
 HOMO :        9 A                -0.12724972929635E+00
 LUMO :       10 A                -0.89515589030601E-01
  


                                   ***** SPIN 2 *****

 Scaled ZORA Orbital Energies, per Irrep and Spin:
 =================================================
                        Occup              E (au)              E (eV)       Diff (eV) with prev. cycle
                        -----      --------------------        ------       --------------------------
 A
               1        1.000     -0.11199717159773E+02      -304.760               8.32E-07
               2        1.000     -0.10178437594668E+02      -276.969               8.69E-07
               3        1.000     -0.10581065326711E+01       -28.793               1.36E-06
               4        1.000     -0.10578090659715E+01       -28.784               2.81E-07
               5        1.000     -0.10337497443863E+01       -28.130               8.05E-07
               6        1.000     -0.35863166098341E+00        -9.759               1.01E-06
               7        1.000     -0.27967195252304E+00        -7.610               8.87E-08
               8        1.000     -0.27935386732420E+00        -7.602               1.10E-06
               9        1.000     -0.12724972328572E+00        -3.463               8.51E-07
              10        0.000     -0.89515585376158E-01        -2.436
              11        0.000      0.24398238520367E-01         0.664
              12        0.000      0.24493448092659E-01         0.667
              13        0.000      0.32112414806191E-01         0.874
              14        0.000      0.32165803031050E-01         0.875
              15        0.000      0.42616266183175E-01         1.160
              16        0.000      0.94668166309873E-01         2.576
              17        0.000      0.13305332798686E+00         3.621
              18        0.000      0.13328338743096E+00         3.627
              19        0.000      0.22887632768792E+00         6.228
  
 HOMO :        9 A                -0.12724972328572E+00
 LUMO :       10 A                -0.89515585376158E-01
  


 Orbital Energies, both Spins
 ========================================

 Irrep        no.  (spin)   Occup              E (au)                E (eV)
 ---------------------------------------------------------------------------
 A             1     A       1.00       -0.11199717163874E+02      -304.7598
 A             1      B      1.00       -0.11199717159773E+02      -304.7598
 A             2     A       1.00       -0.10178437595792E+02      -276.9694
 A             2      B      1.00       -0.10178437594668E+02      -276.9694
 A             3     A       1.00       -0.10581065336472E+01       -28.7925
 A             3      B      1.00       -0.10581065326711E+01       -28.7925
 A             4     A       1.00       -0.10578090669308E+01       -28.7844
 A             4      B      1.00       -0.10578090659715E+01       -28.7844
 A             5     A       1.00       -0.10337497444276E+01       -28.1298
 A             5      B      1.00       -0.10337497443863E+01       -28.1298
 A             6     A       1.00       -0.35863166801935E+00        -9.7589
 A             6      B      1.00       -0.35863166098341E+00        -9.7589
 A             7      B      1.00       -0.27967195252304E+00        -7.6103
 A             7     A       1.00       -0.27967194934308E+00        -7.6103
 A             8      B      1.00       -0.27935386732420E+00        -7.6016
 A             8     A       1.00       -0.27935386414368E+00        -7.6016
 A             9     A       1.00       -0.12724972929635E+00        -3.4626
 A             9      B      1.00       -0.12724972328572E+00        -3.4626
 A            10     A       0.00       -0.89515589030601E-01        -2.4358
 A            10      B      0.00       -0.89515585376158E-01        -2.4358
 A            11     A       0.00        0.24398235532911E-01         0.6639
 A            11      B      0.00        0.24398238520367E-01         0.6639
 A            12     A       0.00        0.24493445079230E-01         0.6665
 A            12      B      0.00        0.24493448092659E-01         0.6665
 A            13     A       0.00        0.32112413799861E-01         0.8738
 A            13      B      0.00        0.32112414806191E-01         0.8738
 A            14     A       0.00        0.32165802027242E-01         0.8753
 A            14      B      0.00        0.32165803031050E-01         0.8753
 A            15     A       0.00        0.42616265188725E-01         1.1596
 A            15      B      0.00        0.42616266183175E-01         1.1596
 A            16     A       0.00        0.94668163323736E-01         2.5761
 A            16      B      0.00        0.94668166309873E-01         2.5761
 A            17     A       0.00        0.13305332573112E+00         3.6206
 A            17      B      0.00        0.13305332798686E+00         3.6206
 A            18     A       0.00        0.13328338509642E+00         3.6268
 A            18      B      0.00        0.13328338743096E+00         3.6268
 A            19     A       0.00        0.22887632647356E+00         6.2280
 A            19      B      0.00        0.22887632768792E+00         6.2280
 A            20     A       0.00        0.22893755100225E+00         6.2297
 A            20      B      0.00        0.22893755220774E+00         6.2297
 A            21     A       0.00        0.23051556100857E+00         6.2726
 A            21      B      0.00        0.23051556564346E+00         6.2726
 A            22     A       0.00        0.28545648701673E+00         7.7677
 A            22      B      0.00        0.28545648827172E+00         7.7677
 A            23     A       0.00        0.39096732676467E+00        10.6388
 A            23      B      0.00        0.39096732864250E+00        10.6388
 A            24     A       0.00        0.39109949309253E+00        10.6424
 A            24      B      0.00        0.39109949498458E+00        10.6424
 A            25     A       0.00        0.46435165130607E+00        12.6357
 A            25      B      0.00        0.46435165218863E+00        12.6357
 A            26      B      0.00        0.55865700098752E+00        15.2018
 A            26     A       0.00        0.55865700222536E+00        15.2018
 A            27      B      0.00        0.55878820621325E+00        15.2054
 A            27     A       0.00        0.55878820726068E+00        15.2054
 A            28      B      0.00        0.55904786748631E+00        15.2125
 A            28     A       0.00        0.55904787196826E+00        15.2125
 A            29     A       0.00        0.69412969749880E+00        18.8882
 A            29      B      0.00        0.69412970277906E+00        18.8882
 A            30      B      0.00        0.79368516014923E+00        21.5973
 A            30     A       0.00        0.79368516214959E+00        21.5973
 A            31      B      0.00        0.79380367148723E+00        21.6005
 A            31     A       0.00        0.79380367345464E+00        21.6005
 A            32      B      0.00        0.89236937738673E+00        24.2826
 A            32     A       0.00        0.89236937897250E+00        24.2826
 A            33      B      0.00        0.89262795341083E+00        24.2896
 A            33     A       0.00        0.89262795496295E+00        24.2896
 A            34      B      0.00        0.89615273065209E+00        24.3856
 A            34     A       0.00        0.89615273313912E+00        24.3856
 A            35     A       0.00        0.99381423576005E+00        27.0431
 A            35      B      0.00        0.99381423596662E+00        27.0431
 A            36     A       0.00        0.99402358905687E+00        27.0488
 A            36      B      0.00        0.99402358927109E+00        27.0488
 A            37     A       0.00        0.10200806257089E+01        27.7578
 A            37      B      0.00        0.10200806271555E+01        27.7578
 A            38      B      0.00        0.14436539706666E+01        39.2838
 A            38     A       0.00        0.14436539746537E+01        39.2838
 A            39      B      0.00        0.14439527759539E+01        39.2920
 A            39     A       0.00        0.14439527793650E+01        39.2920
 A            40      B      0.00        0.14442289508619E+01        39.2995
 A            40     A       0.00        0.14442289532525E+01        39.2995
 A            41      B      0.00        0.14444023144017E+01        39.3042
 A            41     A       0.00        0.14444023173477E+01        39.3042
 A            42     A       0.00        0.14684045271137E+01        39.9573
 A            42      B      0.00        0.14684045278923E+01        39.9573
 A            43     A       0.00        0.14712108819957E+01        40.0337
 A            43      B      0.00        0.14712108891432E+01        40.0337
 A            44      B      0.00        0.14859387104806E+01        40.4344
 A            44     A       0.00        0.14859387140285E+01        40.4344
 A            45     A       0.00        0.16676291713078E+01        45.3785
 A            45      B      0.00        0.16676291778349E+01        45.3785
 A            46     A       0.00        0.18044047407990E+01        49.1004
 A            46      B      0.00        0.18044047440708E+01        49.1004
 A            47      B      0.00        0.20626932965836E+01        56.1287
 A            47     A       0.00        0.20626932974967E+01        56.1287
 A            48      B      0.00        0.20631275109275E+01        56.1406
 A            48     A       0.00        0.20631275118204E+01        56.1406
 A            49     A       0.00        0.21873628666085E+01        59.5212
 A            49      B      0.00        0.21873628679174E+01        59.5212
 A            50     A       0.00        0.21883281210426E+01        59.5474
 A            50      B      0.00        0.21883281222597E+01        59.5474
 A            51     A       0.00        0.22164288197148E+01        60.3121
 A            51      B      0.00        0.22164288202675E+01        60.3121
 A            52     A       0.00        0.22169540446668E+01        60.3264
 A            52      B      0.00        0.22169540450957E+01        60.3264
 A            53      B      0.00        0.24250015247634E+01        65.9876
 A            53     A       0.00        0.24250015274502E+01        65.9876
 A            54      B      0.00        0.24257092407849E+01        66.0069
 A            54     A       0.00        0.24257092434723E+01        66.0069
 A            55      B      0.00        0.26806282199504E+01        72.9436
 A            55     A       0.00        0.26806282224117E+01        72.9436
 A            56      B      0.00        0.30453745978014E+01        82.8689
 A            56     A       0.00        0.30453745986185E+01        82.8689
 A            57      B      0.00        0.30456241951347E+01        82.8757
 A            57     A       0.00        0.30456241959887E+01        82.8757
 A            58     A       0.00        0.32519621339994E+01        88.4904
 A            58      B      0.00        0.32519621354741E+01        88.4904
 A            59      B      0.00        0.32665623837186E+01        88.8877
 A            59     A       0.00        0.32665623842523E+01        88.8877
 A            60      B      0.00        0.32676920177171E+01        88.9184
 A            60     A       0.00        0.32676920182446E+01        88.9184
 A            61      B      0.00        0.32916176412760E+01        89.5695
 A            61     A       0.00        0.32916176434884E+01        89.5695
 A            62      B      0.00        0.35757266555873E+01        97.3005
 A            62     A       0.00        0.35757266568995E+01        97.3005
 A            63      B      0.00        0.35759563925280E+01        97.3067
 A            63     A       0.00        0.35759563938460E+01        97.3067
 A            64      B      0.00        0.36475522686349E+01        99.2549
 A            64     A       0.00        0.36475522715620E+01        99.2549
 A            65     A       0.00        0.37475814104881E+01       101.9769
 A            65      B      0.00        0.37475814138899E+01       101.9769
 A            66      B      0.00        0.37974846575389E+01       103.3348
[...]
                                    1.20%    25 A              43.130  0.00     1 Me1
                                    1.00%    13 A              10.798  0.00     2 Me2
      -3.463  1.00     9 A         23.44%    12 A               6.674  0.00     2 Me2
                                   22.08%    12 A               6.046  0.00     1 Me1
                                   20.10%     5 A              -5.256  1.00     1 Me1
                                   18.83%     5 A              -2.844  0.00     2 Me2
                                    8.29%     6 A              -0.129  0.00     1 Me1
                                    7.40%     6 A              -0.082  0.00     2 Me2
                                   -2.56%    11 A               4.613  0.00     1 Me1
                                    2.05%     2 A             -17.051  1.00     1 Me1
                                    1.11%    22 A              32.338  0.00     2 Me2
      -2.436  0.00    10 A         31.31%     6 A              -0.129  0.00     1 Me1
                                   30.83%     6 A              -0.082  0.00     2 Me2
                                   14.69%     5 A              -5.256  1.00     1 Me1
                                   12.51%     5 A              -2.844  0.00     2 Me2
                                    2.34%    17 A              18.010  0.00     1 Me1
                                    2.34%    17 A              19.338  0.00     2 Me2
                                    1.91%     2 A             -16.030  1.00     2 Me2
                                    1.62%     2 A             -17.051  1.00     1 Me1
                                    1.16%    11 A               5.493  0.00     2 Me2
                                   -1.10%    11 A               4.613  0.00     1 Me1
       0.664  0.00    11 A         23.97%     7 A               1.346  0.00     1 Me1
                                   23.32%     9 A               4.225  0.00     1 Me1
                                   23.31%     7 A               1.364  0.00     2 Me2
                                   15.54%     9 A               4.226  0.00     2 Me2
                                    7.34%    10 A               4.232  0.00     2 Me2
                                    2.24%     8 A               1.365  0.00     2 Me2
       0.667  0.00    12 A         24.17%     8 A               1.347  0.00     1 Me1
                                   23.39%     8 A               1.365  0.00     2 Me2
                                   23.31%    10 A               4.225  0.00     1 Me1
                                   15.20%    10 A               4.232  0.00     2 Me2
                                    7.48%     9 A               4.226  0.00     2 Me2
                                    1.97%     7 A               1.364  0.00     2 Me2
       0.874  0.00    13 A         39.65%     3 A              -9.951  1.00     2 Me2
                                   21.93%     3 A             -10.292  1.00     1 Me1
                                   18.39%    15 A              13.541  0.00     2 Me2
                                   16.76%     4 A             -10.291  1.00     1 Me1
                                   10.86%    16 A              13.105  0.00     1 Me1
                                    8.37%    15 A              13.105  0.00     1 Me1
                                   -2.79%     7 A               1.364  0.00     2 Me2
                                   -2.76%    10 A               4.232  0.00     2 Me2
                                   -2.28%     7 A               1.346  0.00     1 Me1
                                   -1.96%     9 A               4.225  0.00     1 Me1
                                   -1.81%     8 A               1.347  0.00     1 Me1
                                   -1.53%    10 A               4.225  0.00     1 Me1
                                   -1.08%     8 A               1.365  0.00     2 Me2
       0.875  0.00    14 A         39.43%     4 A              -9.943  1.00     2 Me2
                                   21.98%     4 A             -10.291  1.00     1 Me1
                                   18.37%    16 A              13.544  0.00     2 Me2
                                   16.90%     3 A             -10.292  1.00     1 Me1
                                   10.92%    15 A              13.105  0.00     1 Me1
                                    8.33%    16 A              13.105  0.00     1 Me1
                                   -3.49%     8 A               1.365  0.00     2 Me2
                                   -3.15%     9 A               4.226  0.00     2 Me2
                                   -1.76%    10 A               4.225  0.00     1 Me1
                                   -1.74%     8 A               1.347  0.00     1 Me1
                                   -1.45%     7 A               1.364  0.00     2 Me2
                                   -1.33%     9 A               4.225  0.00     1 Me1
                                   -1.27%     7 A               1.346  0.00     1 Me1
       1.160  0.00    15 A        120.72%     5 A              -2.844  0.00     2 Me2
                                  -91.05%    11 A               5.493  0.00     2 Me2
                                   51.97%     5 A              -5.256  1.00     1 Me1
                                   43.67%     6 A              -0.082  0.00     2 Me2
                                   40.15%     6 A              -0.129  0.00     1 Me1
                                   35.77%     2 A             -17.051  1.00     1 Me1
                                   32.91%     2 A             -16.030  1.00     2 Me2
                                  -31.54%    17 A              19.338  0.00     2 Me2
                                  -27.57%    17 A              18.010  0.00     1 Me1
                                  -25.65%    30 A              61.015  0.00     1 Me1
                                  -25.25%    32 A              63.474  0.00     2 Me2
                                  -19.99%    11 A               4.613  0.00     1 Me1
                                   10.20%    12 A               6.674  0.00     2 Me2
                                   -9.62%    22 A              32.338  0.00     2 Me2
                                   -6.77%    22 A              30.932  0.00     1 Me1
                                    4.54%    12 A               6.046  0.00     1 Me1
                                   -2.57%    21 A              24.987  0.00     1 Me1
                                   -1.07%    41 A              95.072  0.00     2 Me2
       2.576  0.00    16 A         22.29%    12 A               6.046  0.00     1 Me1
                                   21.79%    12 A               6.674  0.00     2 Me2
                                   12.20%     6 A              -0.082  0.00     2 Me2
                                   10.89%     6 A              -0.129  0.00     1 Me1
                                   10.57%     5 A              -5.256  1.00     1 Me1
                                    8.43%     5 A              -2.844  0.00     2 Me2
                                    5.44%    17 A              18.010  0.00     1 Me1
                                    4.71%    17 A              19.338  0.00     2 Me2
                                   -1.50%    11 A               4.613  0.00     1 Me1


                                       *** SPIN 2 ***


       E(eV)  Occ       MO           %     SFO (first member)   E(eV)  Occ   Fragment
 -------------------------------------------------------------------------------------

      -9.759  1.00     6 A         63.48%     5 A              -5.256  1.00     2 Me2
                                   63.21%     5 A              -2.844  0.00     1 Me1
                                  -22.34%     2 A             -16.030  1.00     1 Me1
                                  -22.19%     2 A             -17.051  1.00     2 Me2
                                    5.47%    17 A              19.338  0.00     1 Me1
                                    5.15%    17 A              18.010  0.00     2 Me2
                                    2.24%     6 A              -0.082  0.00     1 Me1
                                    2.19%     6 A              -0.129  0.00     2 Me2
                                    1.25%    12 A               6.046  0.00     2 Me2
                                    1.02%    12 A               6.674  0.00     1 Me1
      -7.610  1.00     7 A         19.38%    13 A              10.523  0.00     2 Me2
                                   13.74%    14 A              10.804  0.00     1 Me1
                                    8.80%     9 A               4.222  0.00     2 Me2
                                    6.96%     8 A               1.347  0.00     2 Me2
                                    6.71%    13 A              10.803  0.00     1 Me1
                                    6.17%    10 A               4.229  0.00     1 Me1
                                    6.08%     8 A               1.365  0.00     1 Me1
                                    4.63%     4 A             -10.287  1.00     2 Me2
                                    3.71%     4 A              -9.946  1.00     1 Me1
                                    3.14%     7 A               1.346  0.00     2 Me2
                                    3.01%     9 A               4.229  0.00     1 Me1
                                    2.96%     7 A               1.364  0.00     1 Me1
                                    2.25%    23 A              37.637  0.00     2 Me2
                                    1.81%     3 A              -9.948  1.00     1 Me1
                                    1.71%    23 A              37.758  0.00     1 Me1
                                    1.66%    25 A              43.120  0.00     2 Me2
                                    1.17%    26 A              44.521  0.00     1 Me1
                                    1.02%    14 A              10.533  0.00     2 Me2
      -7.602  1.00     8 A         19.39%    14 A              10.533  0.00     2 Me2
                                   13.74%    13 A              10.803  0.00     1 Me1
                                    8.78%    10 A               4.228  0.00     2 Me2
                                    6.96%     7 A               1.346  0.00     2 Me2
                                    6.72%    14 A              10.804  0.00     1 Me1
                                    6.18%     9 A               4.229  0.00     1 Me1
                                    6.09%     7 A               1.364  0.00     1 Me1
                                    4.66%     3 A             -10.295  1.00     2 Me2
                                    3.69%     3 A              -9.948  1.00     1 Me1
                                    3.13%     8 A               1.347  0.00     2 Me2
                                    3.01%    10 A               4.229  0.00     1 Me1
                                    2.97%     8 A               1.365  0.00     1 Me1
                                    2.25%    24 A              37.642  0.00     2 Me2
                                    1.79%     4 A              -9.946  1.00     1 Me1
                                    1.71%    24 A              37.758  0.00     1 Me1
                                    1.66%    26 A              43.144  0.00     2 Me2
                                    1.17%    25 A              44.515  0.00     1 Me1
                                    1.02%    13 A              10.523  0.00     2 Me2
      -3.463  1.00     9 A         23.44%    12 A               6.674  0.00     1 Me1
                                   22.08%    12 A               6.046  0.00     2 Me2
                                   20.10%     5 A              -5.256  1.00     2 Me2
                                   18.83%     5 A              -2.844  0.00     1 Me1
                                    8.29%     6 A              -0.129  0.00     2 Me2
                                    7.40%     6 A              -0.082  0.00     1 Me1
                                   -2.56%    11 A               4.613  0.00     2 Me2
                                    2.05%     2 A             -17.051  1.00     2 Me2
                                    1.11%    22 A              32.338  0.00     1 Me1
      -2.436  0.00    10 A         31.31%     6 A              -0.129  0.00     2 Me2
                                   30.83%     6 A              -0.082  0.00     1 Me1
                                   14.69%     5 A              -5.256  1.00     2 Me2
                                   12.51%     5 A              -2.844  0.00     1 Me1
                                    2.34%    17 A              18.010  0.00     2 Me2
                                    2.34%    17 A              19.338  0.00     1 Me1
                                    1.91%     2 A             -16.030  1.00     1 Me1
                                    1.62%     2 A             -17.051  1.00     2 Me2
                                    1.16%    11 A               5.493  0.00     1 Me1
                                   -1.10%    11 A               4.613  0.00     2 Me2
       0.664  0.00    11 A         24.88%     7 A               1.364  0.00     1 Me1
                                   23.95%     7 A               1.346  0.00     2 Me2
                                   22.36%     9 A               4.229  0.00     1 Me1
                                   16.17%     9 A               4.222  0.00     2 Me2
                                    7.70%    10 A               4.228  0.00     2 Me2
       0.667  0.00    12 A         25.08%     8 A               1.365  0.00     1 Me1
                                   23.91%     8 A               1.347  0.00     2 Me2
                                   22.34%    10 A               4.229  0.00     1 Me1
                                   15.82%    10 A               4.228  0.00     2 Me2
                                    7.84%     9 A               4.222  0.00     2 Me2
       0.874  0.00    13 A         38.88%     3 A             -10.295  1.00     2 Me2
                                   22.40%     3 A              -9.948  1.00     1 Me1
                                   18.88%    15 A              13.104  0.00     2 Me2
                                   17.11%     4 A              -9.946  1.00     1 Me1
                                   10.78%    16 A              13.543  0.00     1 Me1
                                    8.31%    15 A              13.542  0.00     1 Me1
                                   -3.05%    10 A               4.228  0.00     2 Me2
                                   -2.77%     7 A               1.364  0.00     1 Me1
                                   -2.19%     8 A               1.365  0.00     1 Me1
                                   -1.79%     7 A               1.346  0.00     2 Me2
                                   -1.79%     9 A               4.229  0.00     1 Me1
                                   -1.39%    10 A               4.229  0.00     1 Me1
                                   -1.21%     8 A               1.347  0.00     2 Me2
       0.875  0.00    14 A         38.67%     4 A             -10.287  1.00     2 Me2
                                   22.45%     4 A              -9.946  1.00     1 Me1
                                   18.86%    16 A              13.106  0.00     2 Me2
                                   17.26%     3 A              -9.948  1.00     1 Me1
                                   10.84%    15 A              13.542  0.00     1 Me1
                                    8.27%    16 A              13.543  0.00     1 Me1
                                   -3.46%     9 A               4.222  0.00     2 Me2
                                   -2.35%     8 A               1.347  0.00     2 Me2
                                   -2.23%     8 A               1.365  0.00     1 Me1
                                   -1.73%     7 A               1.346  0.00     2 Me2
                                   -1.64%     7 A               1.364  0.00     1 Me1
                                   -1.60%    10 A               4.229  0.00     1 Me1
                                   -1.20%     9 A               4.229  0.00     1 Me1
       1.160  0.00    15 A        120.72%     5 A              -2.844  0.00     1 Me1
                                  -91.05%    11 A               5.493  0.00     1 Me1
                                   51.97%     5 A              -5.256  1.00     2 Me2
                                   43.67%     6 A              -0.082  0.00     1 Me1
                                   40.15%     6 A              -0.129  0.00     2 Me2
                                   35.77%     2 A             -17.051  1.00     2 Me2
                                   32.91%     2 A             -16.030  1.00     1 Me1
                                  -31.54%    17 A              19.338  0.00     1 Me1
                                  -27.57%    17 A              18.010  0.00     2 Me2
                                  -25.65%    30 A              61.019  0.00     2 Me2
                                  -25.24%    32 A              63.478  0.00     1 Me1
                                  -19.99%    11 A               4.613  0.00     2 Me2
                                   10.19%    12 A               6.674  0.00     1 Me1
                                   -9.62%    22 A              32.338  0.00     1 Me1
                                   -6.77%    22 A              30.932  0.00     2 Me2
                                    4.55%    12 A               6.046  0.00     2 Me2
                                   -2.57%    21 A              24.987  0.00     2 Me2
                                   -1.07%    41 A              95.072  0.00     1 Me1
       2.576  0.00    16 A         22.29%    12 A               6.046  0.00     2 Me2
                                   21.79%    12 A               6.674  0.00     1 Me1
                                   12.20%     6 A              -0.082  0.00     1 Me1
                                   10.88%     6 A              -0.129  0.00     2 Me2
                                   10.56%     5 A              -5.256  1.00     2 Me2
                                    8.44%     5 A              -2.844  0.00     1 Me1
                                    5.44%    17 A              18.010  0.00     2 Me2
                                    4.71%    17 A              19.338  0.00     1 Me1
                                   -1.50%    11 A               4.613  0.00     2 Me2



 =======================================================================
 Electrostatic potential at the Nuclei due to electrons and other nuclei
 =======================================================================
  
         Atom                  Potential
         ----                  ---------
     1)   C                  14.09350825
     2)   H                   0.94669218
     3)   H                   0.94643424
     4)   H                   0.94714251
     5)   C                  14.09350794
     6)   H                   0.94687844
     7)   H                   0.94624773
     8)   H                   0.94714265
 Mulliken charges used for AMS results%charges...


    =====================
     CALCULATION RESULTS
    =====================

Energy (hartree)             6.32748427


--------------
Atomic charges
--------------
  Index   Atom    Charge
      1      C    0.6203
      2      H   -0.2066
      3      H   -0.2067
      4      H   -0.2070
      5      C    0.6204
      6      H   -0.2065
      7      H   -0.2068
      8      H   -0.2071


Dipole moment vector    (Debye):    -0.00082034   -0.00004258   -0.00000382
              magnitude (Debye):     0.00082145


AMS application finished. Exiting.
NORMAL TERMINATION
     Total cpu time:      20.82
  Total system time:       1.87
 Total elapsed time:      27.04
