

 Parallel Execution: Process Information
 ==============================================================================
 Rank   Node Name                              NodeID   MyNodeRank  NodeMaster
    0   yumans-mbp.home                           0          0          0
    1   yumans-mbp.home                           0          1         -1
    2   yumans-mbp.home                           0          2         -1
    3   yumans-mbp.home                           0          3         -1
    4   yumans-mbp.home                           0          4         -1
    5   yumans-mbp.home                           0          5         -1
    6   yumans-mbp.home                           0          6         -1
    7   yumans-mbp.home                           0          7         -1
    8   yumans-mbp.home                           0          8         -1
    9   yumans-mbp.home                           0          9         -1
 ==============================================================================


May use up to 15625MB of RAM as shared memory on node 0

 *******************************************************************************
 *                                                                             *
 *  --------------------------------                                           *
 *   Amsterdam Modeling Suite (AMS)              2022.103                      *
 *  --------------------------------                                           *
 *                                               r104886 2022-06-17            *
 *                                                                             *
 *                                                                             *
 *                              =================                              *
 *                              |               |                              *
 *                              |     A M S     |                              *
 *                              |               |                              *
 *                              =================                              *
 *                                                                             *
 *                                                                             *
 *   Online information and documentation:  https://www.scm.com/support/       *
 *   E-mail:  support@scm.com   info@scm.com                                   *
 *                                                                             *
 *   Scientific publications using AMS results must be properly referenced     *
 *   See the User Manuals (or the web site) for recommended citations          *
 *   The terms and conditions of the End User License Agreement apply to       *
 *   the use of AMS, https://www.scm.com/license-terms/                        *
 *                                                                             *
 **********************  x86_64_darwin_intel / openmpi  ************************
 
 Licensed to: Prof Visscher, Prof Bickelhaupt, Prof Fonseca Guerra / Vrije Universiteit, Theoretische Chemie / Amsterdam / NETHERLANDS 2022-12-13 09:59:29
 SCM User ID: u21794
  
 AMS 2022.103  RunTime: Sep27-2023 14:22:16  ShM Nodes: 1  Procs: 10

 AMS jobname: ams
 AMS jobid  : 402614760

 Start   directory: /Users/yumanhordijk/PhD/pi_rotation/benzene/tmp.yumanhordijk.47831.0.noindex/
 Results directory: /Users/yumanhordijk/PhD/pi_rotation/benzene/go.results/
 Scratch directory: /tmp/amstmp_ams_kid0.402614760/


 Communication costs MPI_COMM_WORLD:   2130.532 usec per message,   1.1074 usec per 8-byte item
 Communication costs for intra-node:   2127.967 usec per message,   1.2826 usec per 8-byte item

 RNG seed: -1498031123 280862980 642580348 -174530500 529351881 1859511320 335811188 344106737



                     *************************************************************************
                     *  ADF 2022.103  RunTime: Sep27-2023 14:22:26  ShM Nodes: 1  Procs: 10  *
                     *************************************************************************
  
       ***************************
       *  GEOMETRY OPTIMIZATION  *
       ***************************

Optimization Method                    Quasi Newton
Optimization Coordinates               Delocalized Coordinates
Optimize lattice                       F
 
 ------------------------------------------------------
 Convergence criteria (Hartree,Angstrom)
 ------------------------------------------------------
 Maximum gradient               0.001000000000
 Maximum rms gradient           0.000666666667
 Maximum step allowed           0.010000000000
 Maximum rms step allowed       0.006666666667
 Maximum energy change allowe   0.000120000000
 Maximum stress energy allowe   0.000500000000
 
Initial model Hessian                  Automatic Hessian
 
------------------------------------
Quasi-Newton Optimizer Parameters
------------------------------------
Hessian Update Method                  BFGS
Maximum number of steps                  250
First GDIIS cycle                          0
Maximum GDIIS vectors                      0
Trust radius (bohr)                        0.200000
Trust radius varies                        T
Constraints converged at all steps         T
Use projector                              T
 
 Rigid motions settings for: old optimizer
 Atomic rotations (x,y,z):     T T T
 Atomic translations (x,y,z):  T T T
 Tolerance:                   1.000000000000000E-006
 
--------
Geometry
--------
Formula: C6H6
Atoms
  Index Symbol   x (angstrom)   y (angstrom)   z (angstrom)
      1      C     1.19902055    -0.69225484     0.00000000
      2      C     1.19902055     0.69225484     0.00000000
      3      C     0.00000000     1.38450967     0.00000000
      4      C    -1.19902055     0.69225484     0.00000000
      5      C    -1.19902055    -0.69225484     0.00000000
      6      C     0.00000000    -1.38450967     0.00000000
      7      H     2.14580370    -1.23888035     0.00000000
      8      H     2.14580370     1.23888035     0.00000000
      9      H     0.00000000     2.47776069     0.00000000
     10      H    -2.14580370     1.23888035     0.00000000
     11      H    -2.14580370    -1.23888035     0.00000000
     12      H     0.00000000    -2.47776069     0.00000000
 
Total System Charge             0.00000
Bonding info available!
 
 
----------------
ADF Engine Input
----------------
 
 Basis
 Type TZ2P
 Core None
 End
 XC
 GGA OLYP
 End
 Symmetry NOSYM
 NumericalQuality Good
 

 Title: *** (NO TITLE) ***

Number of symmetry operators: 24
Schoenflies symbol:           D(6H)
 Using automatic Hessian for delocalized coordinates.
 *** GO1_GOStep1 ***

 Energy gradients wrt nuclear displacements
 ==========================================

     Atom      Cartesian (a.u./angstrom)
                 X         Y         Z
 ----------------------------------------
     1 C    -0.023616  0.013648 -0.000000
     2 C    -0.023613 -0.013648  0.000000
     3 C    -0.000000 -0.027174 -0.000000
     4 C     0.023616 -0.013650  0.000000
     5 C     0.023613  0.013648  0.000000
     6 C     0.000000  0.027175 -0.000000
     7 H     0.005232 -0.003029 -0.000000
     8 H     0.005231  0.003029  0.000000
     9 H    -0.000000  0.005997  0.000000
    10 H    -0.005232  0.003029  0.000000
    11 H    -0.005231 -0.003029  0.000000
    12 H    -0.000000 -0.005997  0.000000
 ----------------------------------------
 Mulliken charges used for AMS results%charges...
 
----------------------------------------------------------------------
Geometry Convergence after Step   1       (Hartree/Angstrom,Angstrom)
----------------------------------------------------------------------
current energy                               -2.68820091 Hartree
energy change                      -2.68820091     0.00012000    F
constrained gradient max            0.02724171     0.00100000    F
constrained gradient rms            0.01139048     0.00066667    F
gradient max                        0.02724171
gradient rms                        0.01139048
cart. step max                      0.01073942     0.01000000    F
cart. step rms                      0.00531349     0.00666667    T
 
 
--------
Geometry
--------
Formula: C6H6
Atoms
  Index Symbol   x (angstrom)   y (angstrom)   z (angstrom)
      1      C     1.20832116    -0.69762455     0.00000000
      2      C     1.20832116     0.69762455     0.00000000
      3      C     0.00000000     1.39524909     0.00000000
      4      C    -1.20832116     0.69762455     0.00000000
      5      C    -1.20832116    -0.69762455     0.00000000
      6      C    -0.00000000    -1.39524909     0.00000000
      7      H     2.15217141    -1.24255675     0.00000000
      8      H     2.15217141     1.24255675     0.00000000
      9      H     0.00000000     2.48511349     0.00000000
     10      H    -2.15217141     1.24255675     0.00000000
     11      H    -2.15217141    -1.24255675     0.00000000
     12      H    -0.00000000    -2.48511349     0.00000000
 
Total System Charge             0.00000
Bonding info available!
 
 *** GO1_GOStep2 ***
