

 Parallel Execution: Process Information
 ==============================================================================
 Rank   Node Name                              NodeID   MyNodeRank  NodeMaster
    0   yumans-mbp.home                           0          0          0
    1   yumans-mbp.home                           0          1         -1
    2   yumans-mbp.home                           0          2         -1
    3   yumans-mbp.home                           0          3         -1
    4   yumans-mbp.home                           0          4         -1
    5   yumans-mbp.home                           0          5         -1
    6   yumans-mbp.home                           0          6         -1
    7   yumans-mbp.home                           0          7         -1
    8   yumans-mbp.home                           0          8         -1
    9   yumans-mbp.home                           0          9         -1
 ==============================================================================


May use up to 15625MB of RAM as shared memory on node 0

 *******************************************************************************
 *                                                                             *
 *  --------------------------------                                           *
 *   Amsterdam Modeling Suite (AMS)              2022.103                      *
 *  --------------------------------                                           *
 *                                               r104886 2022-06-17            *
 *                                                                             *
 *                                                                             *
 *                              =================                              *
 *                              |               |                              *
 *                              |     A M S     |                              *
 *                              |               |                              *
 *                              =================                              *
 *                                                                             *
 *                                                                             *
 *   Online information and documentation:  https://www.scm.com/support/       *
 *   E-mail:  support@scm.com   info@scm.com                                   *
 *                                                                             *
 *   Scientific publications using AMS results must be properly referenced     *
 *   See the User Manuals (or the web site) for recommended citations          *
 *   The terms and conditions of the End User License Agreement apply to       *
 *   the use of AMS, https://www.scm.com/license-terms/                        *
 *                                                                             *
 **********************  x86_64_darwin_intel / openmpi  ************************
 
 Licensed to: Prof Visscher, Prof Bickelhaupt, Prof Fonseca Guerra / Vrije Universiteit, Theoretische Chemie / Amsterdam / NETHERLANDS 2022-12-13 09:59:29
 SCM User ID: u21794
  
 AMS 2022.103  RunTime: Sep27-2023 14:23:50  ShM Nodes: 1  Procs: 10

 AMS jobname: ams
 AMS jobid  : 1595776989

 Start   directory: /Users/yumanhordijk/PhD/pi_rotation/benzene/tmp.yumanhordijk.47989.0.noindex/
 Results directory: /Users/yumanhordijk/PhD/pi_rotation/benzene/go.results/
 Scratch directory: /tmp/amstmp_ams_kid0.1595776989/


 Communication costs MPI_COMM_WORLD:   2253.185 usec per message,   1.1852 usec per 8-byte item
 Communication costs for intra-node:   2713.778 usec per message,   0.7598 usec per 8-byte item

 RNG seed: 2080250197 1481392757 1723386451 639064155 -1298433025 1764188198 -1669536413 59554890



                     *************************************************************************
                     *  ADF 2022.103  RunTime: Sep27-2023 14:24:01  ShM Nodes: 1  Procs: 10  *
                     *************************************************************************
  
       ****************************
       * SINGLE POINT CALCULATION *
       ****************************
 
--------
Geometry
--------
Formula: C6H6
Atoms
  Index Symbol   x (angstrom)   y (angstrom)   z (angstrom)
      1      C     1.19902055    -0.69225484     0.00000000
      2      C     1.19902055     0.69225484     0.00000000
      3      C     0.00000000     1.38450967     0.00000000
      4      C    -1.19902055     0.69225484     0.00000000
      5      C    -1.19902055    -0.69225484     0.00000000
      6      C     0.00000000    -1.38450967     0.00000000
      7      H     2.14580370    -1.23888035     0.00000000
      8      H     2.14580370     1.23888035     0.00000000
      9      H     0.00000000     2.47776069     0.00000000
     10      H    -2.14580370     1.23888035     0.00000000
     11      H    -2.14580370    -1.23888035     0.00000000
     12      H     0.00000000    -2.47776069     0.00000000
 
Total System Charge             0.00000
Bonding info available!
 
 
----------------
ADF Engine Input
----------------
 
 Basis
 Type TZ2P
 Core None
 End
 XC
 GGA OLYP
 End
 Symmetry NOSYM
 NumericalQuality Good
 

 Title: *** (NO TITLE) ***

 *** adf ***



 ===========================
 A T T A C H E D   F I L E S
 ===========================
  



 ===============================
 M O D E L   P A R A M E T E R S
 ===============================
  
 DENSITY FUNCTIONAL POTENTIAL (scf)
    LDA:                               Exchange only                           == Not Default ==
    Gradient Corrections:              OPTX LYP                                == Not Default ==

 SPIN  (restricted / unrestr.)
    Molecule:                          Restricted                               
    Fragments:                         Restricted                               

 OTHER ASPECTS
    Relativistic Corrections:          scalar (ZORA,MAPA)                       

    Nuclear Charge Density Model:      Point Charge Nuclei                      
    Core Treatment:                    Frozen Orbital(s)                        

    Hyperfine or Zeeman Interaction:   ---                                      


 Fragment File(s)
 ----------------
 C:
         file : /Users/yumanhordijk/PhD/pi_rotation/benzene/go.results/t21.5384E61.C
         jobid: 0
         title: Carbon (TZ2P)
 H:
         file : /Users/yumanhordijk/PhD/pi_rotation/benzene/go.results/t21.4DC4E5D.H
         jobid: 0
         title: Hydrogen (TZ2P)



 ===============
 G E O M E T R Y  ***  Planar Molecule  ***
 ===============
  

 ATOMS
 =====                            X Y Z                    CHARGE
                                (Angstrom)             Nucl     +Core       At.Mass
                       --------------------------    ----------------       -------
    1  C               1.1990   -0.6923    0.0000      6.00      6.00       12.0000
    2  C               1.1990    0.6923    0.0000      6.00      6.00       12.0000
    3  C               0.0000    1.3845    0.0000      6.00      6.00       12.0000
    4  C              -1.1990    0.6923    0.0000      6.00      6.00       12.0000
    5  C              -1.1990   -0.6923    0.0000      6.00      6.00       12.0000
    6  C               0.0000   -1.3845    0.0000      6.00      6.00       12.0000
    7  H               2.1458   -1.2389    0.0000      1.00      1.00        1.0078
    8  H               2.1458    1.2389    0.0000      1.00      1.00        1.0078
    9  H               0.0000    2.4778    0.0000      1.00      1.00        1.0078
   10  H              -2.1458    1.2389    0.0000      1.00      1.00        1.0078
   11  H              -2.1458   -1.2389    0.0000      1.00      1.00        1.0078
   12  H               0.0000   -2.4778    0.0000      1.00      1.00        1.0078


 FRAGMENTS
 =========                                     Atoms in this Fragment     Cart. coord.s (Angstrom)
                                               -------------------------------------------------------
    1  C                                                 1  C            1.1990   -0.6923    0.0000
    2  C                                                 2  C            1.1990    0.6923    0.0000
    3  C                                                 3  C            0.0000    1.3845    0.0000
    4  C                                                 4  C           -1.1990    0.6923    0.0000
    5  C                                                 5  C           -1.1990   -0.6923    0.0000
    6  C                                                 6  C            0.0000   -1.3845    0.0000
    7  H                                                 7  H            2.1458   -1.2389    0.0000
    8  H                                                 8  H            2.1458    1.2389    0.0000
    9  H                                                 9  H            0.0000    2.4778    0.0000
   10  H                                                10  H           -2.1458    1.2389    0.0000
   11  H                                                11  H           -2.1458   -1.2389    0.0000
   12  H                                                12  H            0.0000   -2.4778    0.0000


 Interatomic Distance Matrix (Angstrom)
 --------------------------------------

   1)     0.000
   2)     1.385   0.000
   3)     2.398   1.385   0.000
   4)     2.769   2.398   1.385   0.000
   5)     2.398   2.769   2.398   1.385   0.000
   6)     1.385   2.398   2.769   2.398   1.385   0.000
   7)     1.093   2.151   3.389   3.862   3.389   2.151   0.000
   8)     2.151   1.093   2.151   3.389   3.862   3.389   2.478   0.000
   9)     3.389   2.151   1.093   2.151   3.389   3.862   4.292   2.478   0.000
  10)     3.862   3.389   2.151   1.093   2.151   3.389   4.956   4.292   2.478   0.000
  11)     3.389   3.862   3.389   2.151   1.093   2.151   4.292   4.956   4.292   2.478
          0.000
  12)     2.151   3.389   3.862   3.389   2.151   1.093   2.478   4.292   4.956   4.292
          2.478   0.000

 Min. Distance =    1.0933
 Max. Distance =    4.9555



 =====================================
 S Y M M E T R Y ,   E L E C T R O N S
 =====================================
  
 Symmetry: NOSYM

 Irreducible Representations, including subspecies
 -------------------------------------------------
 A


 Configuration of Valence Electrons
 ==================================
 ( determined in the SCF procedure )

 Total:   42

 Net Charge: 0 (Nuclei minus Electrons)

 Aufbau principle for MO occupations will be applied through SCF cycle no.     150
 Thereafter, the program will assign electrons to MOs that are spatially
 similar to the occupied MOs in a "reference" cycle ("KeepOrbitals").
 The reference cycle is always the PREVIOUS cycle: it will evolve with
 the SCF procedure.
1
 ***************************************************************************************************



                                      ****************************************
                                      *  B U I L D : (Fragments, Functions)  *
                                      ****************************************
  



 =======
 S F O s  ***  (Symmetrized Fragment Orbitals)  ***
 =======
  
 SFOs are linear combinations of (valence) Fragment Orbitals (FOs), such that the SFOs transform as the
 irreducible representations of the (molecular) symmetry group. Each SFO is therefore characterized by
 an irrep of the molecule and by a few (or only one) generating FOs.
 The SFOs constitute a symmetry-adapted basis for the Fock matrix. The MO eigenvector coefficients in
 this basis provide a direct interpretation of the MOs in terms of Frontier Orbital Theory.

 The SFOs are combined with auxiliary Core Functions (CFs) to ensure orthogonalization on the (frozen)
 Core Orbitals (COs). The Core-orthogonalized SFOs (CSFOs) constitute the true Fock basis.

 The FOs, and hence also the (C)SFOs are combinations of the elementary basis functions (BAS). The basis
 functions that participate in the description of the SFOs depend on the irrep. The indices of the
 involved functions are printed below for each irrep.
 (The complete list of primitive basis functions is printed in another section)

 Total nr. of (C)SFOs (summation over all irreps) :   222

 NOTE: a (C)SFO that is defined as a combination of more than one FO is usually NOT normalized.



                                       === A ===
 Nr. of SFOs :  222
 Cartesian basis functions that participate in this irrep (total number =   252) :
      1     2     3     4     5     6     9    12     7    10
     13     8    11    14    15    16    17    18    19    20
     21    22    23    24    25    26    27    28    29    30
     31    32    33    34    35    36    39    42    37    40
     43    38    41    44    45    46    47    48    49    50
     51    52    53    54    55    56    57    58    59    60
     61    62    63    64    65    66    69    72    67    70
     73    68    71    74    75    76    77    78    79    80
     81    82    83    84    85    86    87    88    89    90
     91    92    93    94    95    96    99   102    97   100
    103    98   101   104   105   106   107   108   109   110
    111   112   113   114   115   116   117   118   119   120
    121   122   123   124   125   126   129   132   127   130
    133   128   131   134   135   136   137   138   139   140
    141   142   143   144   145   146   147   148   149   150
    151   152   153   154   155   156   159   162   157   160
    163   158   161   164   165   166   167   168   169   170
    171   172   173   174   175   176   177   178   179   180
    181   182   183   184   185   186   187   188   189   190
    191   192   193   194   195   196   197   198   199   200
    201   202   203   204   205   206   207   208   209   210
    211   212   213   214   215   216   217   218   219   220
    221   222   223   224   225   226   227   228   229   230
    231   232   233   234   235   236   237   238   239   240
    241   242   243   244   245   246   247   248   249   250
    251   252

    SFO  (index         Fragment          Generating    Expansion in Fragment Orbitals
  indx  incl.CFs)   Occup   Orb.Energy   FragmentType  Coeff.   Orbital     on Fragment
 --------------------------------------------------------------------------------------
     1       1      2.000     -10.064 au  C             1.00      1 S               1
                        (    -273.865 eV)
     2       2      2.000      -0.507 au  C             1.00      2 S               1
                        (     -13.802 eV)
     3       3       --         0.384 au  C             1.00      3 S               1
                        (      10.456 eV)
     4       4       --         5.458 au  C             1.00      4 S               1
                        (     148.511 eV)
     5       5       --        49.970 au  C             1.00      5 S               1
                        (    1359.766 eV)
     6       6      0.667      -0.189 au  C             1.00      1 P:x             1
                        (      -5.135 eV)
     7       7       --         0.168 au  C             1.00      2 P:x             1
                        (       4.559 eV)
     8       8       --         2.056 au  C             1.00      3 P:x             1
                        (      55.959 eV)
     9       9      0.667      -0.189 au  C             1.00      1 P:y             1
                        (      -5.135 eV)
    10      10       --         0.168 au  C             1.00      2 P:y             1
                        (       4.559 eV)
    11      11       --         2.056 au  C             1.00      3 P:y             1
                        (      55.959 eV)
    12      12      0.667      -0.189 au  C             1.00      1 P:z             1
                        (      -5.135 eV)
    13      13       --         0.168 au  C             1.00      2 P:z             1
                        (       4.559 eV)
    14      14       --         2.056 au  C             1.00      3 P:z             1
                        (      55.959 eV)
    15      15       --         1.235 au  C             1.00      1 D:z2            1
                        (      33.605 eV)
    16      16       --         1.235 au  C             1.00      1 D:x2-y2         1
                        (      33.605 eV)
    17      17       --         1.235 au  C             1.00      1 D:xy            1
                        (      33.605 eV)
    18      18       --         1.235 au  C             1.00      1 D:xz            1
                        (      33.605 eV)
    19      19       --         1.235 au  C             1.00      1 D:yz            1
                        (      33.605 eV)
    20      20       --         4.005 au  C             1.00      1 F:z3            1
                        (     108.969 eV)
    21      21       --         4.005 au  C             1.00      1 F:z             1
                        (     108.969 eV)
    22      22       --         4.005 au  C             1.00      1 F:xyz           1
                        (     108.969 eV)
    23      23       --         4.005 au  C             1.00      1 F:z2x           1
                        (     108.969 eV)
    24      24       --         4.005 au  C             1.00      1 F:z2y           1
                        (     108.969 eV)
    25      25       --         4.005 au  C             1.00      1 F:x             1
                        (     108.969 eV)
    26      26       --         4.005 au  C             1.00      1 F:y             1
                        (     108.969 eV)
    27      27      2.000     -10.064 au  C             1.00      1 S               2
                        (    -273.865 eV)
    28      28      2.000      -0.507 au  C             1.00      2 S               2
                        (     -13.802 eV)
    29      29       --         0.384 au  C             1.00      3 S               2
                        (      10.456 eV)
    30      30       --         5.458 au  C             1.00      4 S               2
                        (     148.511 eV)
    31      31       --        49.970 au  C             1.00      5 S               2
                        (    1359.766 eV)
    32      32      0.667      -0.189 au  C             1.00      1 P:x             2
                        (      -5.135 eV)
    33      33       --         0.168 au  C             1.00      2 P:x             2
                        (       4.559 eV)
    34      34       --         2.056 au  C             1.00      3 P:x             2
                        (      55.959 eV)
    35      35      0.667      -0.189 au  C             1.00      1 P:y             2
                        (      -5.135 eV)
    36      36       --         0.168 au  C             1.00      2 P:y             2
                        (       4.559 eV)
    37      37       --         2.056 au  C             1.00      3 P:y             2
                        (      55.959 eV)
    38      38      0.667      -0.189 au  C             1.00      1 P:z             2
                        (      -5.135 eV)
    39      39       --         0.168 au  C             1.00      2 P:z             2
                        (       4.559 eV)
    40      40       --         2.056 au  C             1.00      3 P:z             2
                        (      55.959 eV)
    41      41       --         1.235 au  C             1.00      1 D:z2            2
                        (      33.605 eV)
    42      42       --         1.235 au  C             1.00      1 D:x2-y2         2
                        (      33.605 eV)
    43      43       --         1.235 au  C             1.00      1 D:xy            2
                        (      33.605 eV)
    44      44       --         1.235 au  C             1.00      1 D:xz            2
                        (      33.605 eV)
    45      45       --         1.235 au  C             1.00      1 D:yz            2
                        (      33.605 eV)
    46      46       --         4.005 au  C             1.00      1 F:z3            2
                        (     108.969 eV)
    47      47       --         4.005 au  C             1.00      1 F:z             2
                        (     108.969 eV)
    48      48       --         4.005 au  C             1.00      1 F:xyz           2
                        (     108.969 eV)
    49      49       --         4.005 au  C             1.00      1 F:z2x           2
                        (     108.969 eV)
    50      50       --         4.005 au  C             1.00      1 F:z2y           2
                        (     108.969 eV)
    51      51       --         4.005 au  C             1.00      1 F:x             2
                        (     108.969 eV)
    52      52       --         4.005 au  C             1.00      1 F:y             2
                        (     108.969 eV)
    53      53      2.000     -10.064 au  C             1.00      1 S               3
                        (    -273.865 eV)
    54      54      2.000      -0.507 au  C             1.00      2 S               3
                        (     -13.802 eV)
    55      55       --         0.384 au  C             1.00      3 S               3
                        (      10.456 eV)
    56      56       --         5.458 au  C             1.00      4 S               3
                        (     148.511 eV)
    57      57       --        49.970 au  C             1.00      5 S               3
                        (    1359.766 eV)
    58      58      0.667      -0.189 au  C             1.00      1 P:x             3
                        (      -5.135 eV)
    59      59       --         0.168 au  C             1.00      2 P:x             3
                        (       4.559 eV)
    60      60       --         2.056 au  C             1.00      3 P:x             3
                        (      55.959 eV)
    61      61      0.667      -0.189 au  C             1.00      1 P:y             3
                        (      -5.135 eV)
    62      62       --         0.168 au  C             1.00      2 P:y             3
                        (       4.559 eV)
    63      63       --         2.056 au  C             1.00      3 P:y             3
                        (      55.959 eV)
    64      64      0.667      -0.189 au  C             1.00      1 P:z             3
                        (      -5.135 eV)
    65      65       --         0.168 au  C             1.00      2 P:z             3
                        (       4.559 eV)
    66      66       --         2.056 au  C             1.00      3 P:z             3
                        (      55.959 eV)
    67      67       --         1.235 au  C             1.00      1 D:z2            3
                        (      33.605 eV)
    68      68       --         1.235 au  C             1.00      1 D:x2-y2         3
                        (      33.605 eV)
    69      69       --         1.235 au  C             1.00      1 D:xy            3
                        (      33.605 eV)
    70      70       --         1.235 au  C             1.00      1 D:xz            3
                        (      33.605 eV)
    71      71       --         1.235 au  C             1.00      1 D:yz            3
                        (      33.605 eV)
    72      72       --         4.005 au  C             1.00      1 F:z3            3
                        (     108.969 eV)
    73      73       --         4.005 au  C             1.00      1 F:z             3
                        (     108.969 eV)
    74      74       --         4.005 au  C             1.00      1 F:xyz           3
                        (     108.969 eV)
    75      75       --         4.005 au  C             1.00      1 F:z2x           3
                        (     108.969 eV)
    76      76       --         4.005 au  C             1.00      1 F:z2y           3
                        (     108.969 eV)
    77      77       --         4.005 au  C             1.00      1 F:x             3
                        (     108.969 eV)
    78      78       --         4.005 au  C             1.00      1 F:y             3
                        (     108.969 eV)
    79      79      2.000     -10.064 au  C             1.00      1 S               4
                        (    -273.865 eV)
    80      80      2.000      -0.507 au  C             1.00      2 S               4
                        (     -13.802 eV)
    81      81       --         0.384 au  C             1.00      3 S               4
                        (      10.456 eV)
    82      82       --         5.458 au  C             1.00      4 S               4
                        (     148.511 eV)
    83      83       --        49.970 au  C             1.00      5 S               4
                        (    1359.766 eV)
    84      84      0.667      -0.189 au  C             1.00      1 P:x             4
                        (      -5.135 eV)
    85      85       --         0.168 au  C             1.00      2 P:x             4
                        (       4.559 eV)
    86      86       --         2.056 au  C             1.00      3 P:x             4
                        (      55.959 eV)
    87      87      0.667      -0.189 au  C             1.00      1 P:y             4
                        (      -5.135 eV)
    88      88       --         0.168 au  C             1.00      2 P:y             4
                        (       4.559 eV)
    89      89       --         2.056 au  C             1.00      3 P:y             4
                        (      55.959 eV)
    90      90      0.667      -0.189 au  C             1.00      1 P:z             4
                        (      -5.135 eV)
    91      91       --         0.168 au  C             1.00      2 P:z             4
                        (       4.559 eV)
    92      92       --         2.056 au  C             1.00      3 P:z             4
                        (      55.959 eV)
    93      93       --         1.235 au  C             1.00      1 D:z2            4
                        (      33.605 eV)
    94      94       --         1.235 au  C             1.00      1 D:x2-y2         4
                        (      33.605 eV)
    95      95       --         1.235 au  C             1.00      1 D:xy            4
                        (      33.605 eV)
    96      96       --         1.235 au  C             1.00      1 D:xz            4
                        (      33.605 eV)
    97      97       --         1.235 au  C             1.00      1 D:yz            4
                        (      33.605 eV)
    98      98       --         4.005 au  C             1.00      1 F:z3            4
                        (     108.969 eV)
    99      99       --         4.005 au  C             1.00      1 F:z             4
                        (     108.969 eV)
   100     100       --         4.005 au  C             1.00      1 F:xyz           4
                        (     108.969 eV)
   101     101       --         4.005 au  C             1.00      1 F:z2x           4
                        (     108.969 eV)
   102     102       --         4.005 au  C             1.00      1 F:z2y           4
                        (     108.969 eV)
   103     103       --         4.005 au  C             1.00      1 F:x             4
                        (     108.969 eV)
   104     104       --         4.005 au  C             1.00      1 F:y             4
                        (     108.969 eV)
   105     105      2.000     -10.064 au  C             1.00      1 S               5
                        (    -273.865 eV)
   106     106      2.000      -0.507 au  C             1.00      2 S               5
                        (     -13.802 eV)
   107     107       --         0.384 au  C             1.00      3 S               5
                        (      10.456 eV)
   108     108       --         5.458 au  C             1.00      4 S               5
                        (     148.511 eV)
   109     109       --        49.970 au  C             1.00      5 S               5
                        (    1359.766 eV)
   110     110      0.667      -0.189 au  C             1.00      1 P:x             5
                        (      -5.135 eV)
   111     111       --         0.168 au  C             1.00      2 P:x             5
                        (       4.559 eV)
   112     112       --         2.056 au  C             1.00      3 P:x             5
                        (      55.959 eV)
   113     113      0.667      -0.189 au  C             1.00      1 P:y             5
                        (      -5.135 eV)
   114     114       --         0.168 au  C             1.00      2 P:y             5
                        (       4.559 eV)
   115     115       --         2.056 au  C             1.00      3 P:y             5
                        (      55.959 eV)
   116     116      0.667      -0.189 au  C             1.00      1 P:z             5
                        (      -5.135 eV)
   117     117       --         0.168 au  C             1.00      2 P:z             5
                        (       4.559 eV)
   118     118       --         2.056 au  C             1.00      3 P:z             5
                        (      55.959 eV)
   119     119       --         1.235 au  C             1.00      1 D:z2            5
                        (      33.605 eV)
   120     120       --         1.235 au  C             1.00      1 D:x2-y2         5
                        (      33.605 eV)
   121     121       --         1.235 au  C             1.00      1 D:xy            5
                        (      33.605 eV)
   122     122       --         1.235 au  C             1.00      1 D:xz            5
                        (      33.605 eV)
   123     123       --         1.235 au  C             1.00      1 D:yz            5
                        (      33.605 eV)
   124     124       --         4.005 au  C             1.00      1 F:z3            5
                        (     108.969 eV)
   125     125       --         4.005 au  C             1.00      1 F:z             5
                        (     108.969 eV)
   126     126       --         4.005 au  C             1.00      1 F:xyz           5
                        (     108.969 eV)
   127     127       --         4.005 au  C             1.00      1 F:z2x           5
                        (     108.969 eV)
   128     128       --         4.005 au  C             1.00      1 F:z2y           5
                        (     108.969 eV)
   129     129       --         4.005 au  C             1.00      1 F:x             5
                        (     108.969 eV)
   130     130       --         4.005 au  C             1.00      1 F:y             5
                        (     108.969 eV)
   131     131      2.000     -10.064 au  C             1.00      1 S               6
                        (    -273.865 eV)
   132     132      2.000      -0.507 au  C             1.00      2 S               6
                        (     -13.802 eV)
   133     133       --         0.384 au  C             1.00      3 S               6
                        (      10.456 eV)
   134     134       --         5.458 au  C             1.00      4 S               6
                        (     148.511 eV)
   135     135       --        49.970 au  C             1.00      5 S               6
                        (    1359.766 eV)
   136     136      0.667      -0.189 au  C             1.00      1 P:x             6
                        (      -5.135 eV)
   137     137       --         0.168 au  C             1.00      2 P:x             6
                        (       4.559 eV)
   138     138       --         2.056 au  C             1.00      3 P:x             6
                        (      55.959 eV)
   139     139      0.667      -0.189 au  C             1.00      1 P:y             6
                        (      -5.135 eV)
   140     140       --         0.168 au  C             1.00      2 P:y             6
                        (       4.559 eV)
   141     141       --         2.056 au  C             1.00      3 P:y             6
                        (      55.959 eV)
   142     142      0.667      -0.189 au  C             1.00      1 P:z             6
                        (      -5.135 eV)
   143     143       --         0.168 au  C             1.00      2 P:z             6
                        (       4.559 eV)
   144     144       --         2.056 au  C             1.00      3 P:z             6
                        (      55.959 eV)
   145     145       --         1.235 au  C             1.00      1 D:z2            6
                        (      33.605 eV)
   146     146       --         1.235 au  C             1.00      1 D:x2-y2         6
                        (      33.605 eV)
   147     147       --         1.235 au  C             1.00      1 D:xy            6
                        (      33.605 eV)
   148     148       --         1.235 au  C             1.00      1 D:xz            6
                        (      33.605 eV)
   149     149       --         1.235 au  C             1.00      1 D:yz            6
                        (      33.605 eV)
   150     150       --         4.005 au  C             1.00      1 F:z3            6
                        (     108.969 eV)
   151     151       --         4.005 au  C             1.00      1 F:z             6
                        (     108.969 eV)
   152     152       --         4.005 au  C             1.00      1 F:xyz           6
                        (     108.969 eV)
   153     153       --         4.005 au  C             1.00      1 F:z2x           6
                        (     108.969 eV)
   154     154       --         4.005 au  C             1.00      1 F:z2y           6
                        (     108.969 eV)
   155     155       --         4.005 au  C             1.00      1 F:x             6
                        (     108.969 eV)
   156     156       --         4.005 au  C             1.00      1 F:y             6
                        (     108.969 eV)
   157     157      1.000      -0.238 au  H             1.00      1 S               7
                        (      -6.484 eV)
   158     158       --         0.077 au  H             1.00      2 S               7
                        (       2.096 eV)
   159     159       --         1.521 au  H             1.00      3 S               7
                        (      41.380 eV)
   160     160       --         0.410 au  H             1.00      1 P:x             7
                        (      11.162 eV)
   161     161       --         0.410 au  H             1.00      1 P:y             7
                        (      11.162 eV)
   162     162       --         0.410 au  H             1.00      1 P:z             7
                        (      11.162 eV)
   163     163       --         2.567 au  H             1.00      1 D:z2            7
                        (      69.838 eV)
   164     164       --         2.567 au  H             1.00      1 D:x2-y2         7
                        (      69.838 eV)
   165     165       --         2.567 au  H             1.00      1 D:xy            7
                        (      69.838 eV)
   166     166       --         2.567 au  H             1.00      1 D:xz            7
                        (      69.838 eV)
   167     167       --         2.567 au  H             1.00      1 D:yz            7
                        (      69.838 eV)
   168     168      1.000      -0.238 au  H             1.00      1 S               8
                        (      -6.484 eV)
   169     169       --         0.077 au  H             1.00      2 S               8
                        (       2.096 eV)
   170     170       --         1.521 au  H             1.00      3 S               8
                        (      41.380 eV)
   171     171       --         0.410 au  H             1.00      1 P:x             8
                        (      11.162 eV)
   172     172       --         0.410 au  H             1.00      1 P:y             8
                        (      11.162 eV)
   173     173       --         0.410 au  H             1.00      1 P:z             8
                        (      11.162 eV)
   174     174       --         2.567 au  H             1.00      1 D:z2            8
                        (      69.838 eV)
   175     175       --         2.567 au  H             1.00      1 D:x2-y2         8
                        (      69.838 eV)
   176     176       --         2.567 au  H             1.00      1 D:xy            8
                        (      69.838 eV)
   177     177       --         2.567 au  H             1.00      1 D:xz            8
                        (      69.838 eV)
   178     178       --         2.567 au  H             1.00      1 D:yz            8
                        (      69.838 eV)
   179     179      1.000      -0.238 au  H             1.00      1 S               9
                        (      -6.484 eV)
   180     180       --         0.077 au  H             1.00      2 S               9
                        (       2.096 eV)
   181     181       --         1.521 au  H             1.00      3 S               9
                        (      41.380 eV)
   182     182       --         0.410 au  H             1.00      1 P:x             9
                        (      11.162 eV)
   183     183       --         0.410 au  H             1.00      1 P:y             9
                        (      11.162 eV)
   184     184       --         0.410 au  H             1.00      1 P:z             9
                        (      11.162 eV)
   185     185       --         2.567 au  H             1.00      1 D:z2            9
                        (      69.838 eV)
   186     186       --         2.567 au  H             1.00      1 D:x2-y2         9
                        (      69.838 eV)
   187     187       --         2.567 au  H             1.00      1 D:xy            9
                        (      69.838 eV)
   188     188       --         2.567 au  H             1.00      1 D:xz            9
                        (      69.838 eV)
   189     189       --         2.567 au  H             1.00      1 D:yz            9
                        (      69.838 eV)
   190     190      1.000      -0.238 au  H             1.00      1 S              10
                        (      -6.484 eV)
   191     191       --         0.077 au  H             1.00      2 S              10
                        (       2.096 eV)
   192     192       --         1.521 au  H             1.00      3 S              10
                        (      41.380 eV)
   193     193       --         0.410 au  H             1.00      1 P:x            10
                        (      11.162 eV)
   194     194       --         0.410 au  H             1.00      1 P:y            10
                        (      11.162 eV)
   195     195       --         0.410 au  H             1.00      1 P:z            10
                        (      11.162 eV)
   196     196       --         2.567 au  H             1.00      1 D:z2           10
                        (      69.838 eV)
   197     197       --         2.567 au  H             1.00      1 D:x2-y2        10
                        (      69.838 eV)
   198     198       --         2.567 au  H             1.00      1 D:xy           10
                        (      69.838 eV)
   199     199       --         2.567 au  H             1.00      1 D:xz           10
                        (      69.838 eV)
   200     200       --         2.567 au  H             1.00      1 D:yz           10
                        (      69.838 eV)
   201     201      1.000      -0.238 au  H             1.00      1 S              11
                        (      -6.484 eV)
   202     202       --         0.077 au  H             1.00      2 S              11
                        (       2.096 eV)
   203     203       --         1.521 au  H             1.00      3 S              11
                        (      41.380 eV)
   204     204       --         0.410 au  H             1.00      1 P:x            11
                        (      11.162 eV)
   205     205       --         0.410 au  H             1.00      1 P:y            11
                        (      11.162 eV)
   206     206       --         0.410 au  H             1.00      1 P:z            11
                        (      11.162 eV)
   207     207       --         2.567 au  H             1.00      1 D:z2           11
                        (      69.838 eV)
   208     208       --         2.567 au  H             1.00      1 D:x2-y2        11
                        (      69.838 eV)
   209     209       --         2.567 au  H             1.00      1 D:xy           11
                        (      69.838 eV)
   210     210       --         2.567 au  H             1.00      1 D:xz           11
                        (      69.838 eV)
   211     211       --         2.567 au  H             1.00      1 D:yz           11
                        (      69.838 eV)
   212     212      1.000      -0.238 au  H             1.00      1 S              12
                        (      -6.484 eV)
   213     213       --         0.077 au  H             1.00      2 S              12
                        (       2.096 eV)
   214     214       --         1.521 au  H             1.00      3 S              12
                        (      41.380 eV)
   215     215       --         0.410 au  H             1.00      1 P:x            12
                        (      11.162 eV)
   216     216       --         0.410 au  H             1.00      1 P:y            12
                        (      11.162 eV)
   217     217       --         0.410 au  H             1.00      1 P:z            12
                        (      11.162 eV)
   218     218       --         2.567 au  H             1.00      1 D:z2           12
                        (      69.838 eV)
   219     219       --         2.567 au  H             1.00      1 D:x2-y2        12
                        (      69.838 eV)
   220     220       --         2.567 au  H             1.00      1 D:xy           12
                        (      69.838 eV)
   221     221       --         2.567 au  H             1.00      1 D:xz           12
                        (      69.838 eV)
   222     222       --         2.567 au  H             1.00      1 D:yz           12
                        (      69.838 eV)



 ================================
 (Slater-type)  F U N C T I O N S  ***  (Basis and Fit)  ***
 ================================
  

 Atom Type    1  (C)
 ==============

 Valence Basis Sets:  10
 -----------------------
   1 S    7.680000
   1 S    5.000000
   2 S    1.280000
   2 S    2.100000
   2 S    4.600000
   2 P    0.820000
   2 P    1.480000
   2 P    2.940000
   3 D    2.200000
   4 F    3.300000

 Atom Type    2  (H)
 ==============

 Valence Basis Sets:   5
 -----------------------
   1 S    0.690000
   1 S    0.920000
   1 S    1.580000
   2 P    1.250000
   3 D    2.500000


 BAS: List of all Elementary Cartesian Basis Functions
 =====================================================

 The numbering in the list below (to the right of the function characteristics) is referred
 to in print-outs of MO eigenvectors and Mulliken populations in the BAS representation
 (as contrasted to the SFO representation).

 Notes:
 1. The functions are characterized by a polynomial prefactor (powers of x,y,z and r) and
    an exponential decay factor alpha.
 2. Since the basis sets are specific for an atom TYPE, the individual functions occur on
    all atoms of that type.
 3. The word 'Core' in the left margin signals that it is a Core Function (CF) : not a
    degree of freedom in the valence set, but only used to ensure orthogonalization of
    the other valence basis functions on the frozen Core Orbitals.


 (power of) X  Y  Z  R     Alpha  on Atom
            ==========     =====     ==========

 C                                    1    2    3    4    5    6
                                  ---------------------------------------------------------------------------
            0  0  0  0     7.680      1   31   61   91  121  151
            0  0  0  0     5.000      2   32   62   92  122  152
            0  0  0  1     1.280      3   33   63   93  123  153
            0  0  0  1     2.100      4   34   64   94  124  154
            0  0  0  1     4.600      5   35   65   95  125  155
            1  0  0  0     0.820      6   36   66   96  126  156
            0  1  0  0     0.820      7   37   67   97  127  157
            0  0  1  0     0.820      8   38   68   98  128  158
            1  0  0  0     1.480      9   39   69   99  129  159
            0  1  0  0     1.480     10   40   70  100  130  160
            0  0  1  0     1.480     11   41   71  101  131  161
            1  0  0  0     2.940     12   42   72  102  132  162
            0  1  0  0     2.940     13   43   73  103  133  163
            0  0  1  0     2.940     14   44   74  104  134  164
            2  0  0  0     2.200     15   45   75  105  135  165
            1  1  0  0     2.200     16   46   76  106  136  166
            1  0  1  0     2.200     17   47   77  107  137  167
            0  2  0  0     2.200     18   48   78  108  138  168
            0  1  1  0     2.200     19   49   79  109  139  169
            0  0  2  0     2.200     20   50   80  110  140  170
            3  0  0  0     3.300     21   51   81  111  141  171
            2  1  0  0     3.300     22   52   82  112  142  172
            2  0  1  0     3.300     23   53   83  113  143  173
            1  2  0  0     3.300     24   54   84  114  144  174
            1  1  1  0     3.300     25   55   85  115  145  175
            1  0  2  0     3.300     26   56   86  116  146  176
            0  3  0  0     3.300     27   57   87  117  147  177
            0  2  1  0     3.300     28   58   88  118  148  178
            0  1  2  0     3.300     29   59   89  119  149  179
            0  0  3  0     3.300     30   60   90  120  150  180

 H                                    7    8    9   10   11   12
                                  ---------------------------------------------------------------------------
            0  0  0  0     0.690    181  193  205  217  229  241
            0  0  0  0     0.920    182  194  206  218  230  242
            0  0  0  0     1.580    183  195  207  219  231  243
            1  0  0  0     1.250    184  196  208  220  232  244
            0  1  0  0     1.250    185  197  209  221  233  245
            0  0  1  0     1.250    186  198  210  222  234  246
            2  0  0  0     2.500    187  199  211  223  235  247
            1  1  0  0     2.500    188  200  212  224  236  248
            1  0  1  0     2.500    189  201  213  225  237  249
            0  2  0  0     2.500    190  202  214  226  238  250
            0  1  1  0     2.500    191  203  215  227  239  251
            0  0  2  0     2.500    192  204  216  228  240  252

 Total number of charge fitting functions (nprimf)       804
 Total number of Cartesian basis functions (naos)        252
 Total number of Cartesian core functions  (ncos)          0

1
 ***************************************************************************************************



                                              ***********************
                                              *  T E C H N I C A L  *
                                              ***********************
  



 =============================================================
 P A R A L L E L I Z A T I O N  and  V E C T O R I Z A T I O N
 =============================================================
  
 Nr of parallel processes:                               10
 Maximum vector length in NumInt loops:                 128



 =====================
 S C F   U P D A T E S
 =====================
  
 Max. nr. of cycles:                               300
 Convergence criterion:                              0.0000010000
   secondary criterion:                              0.0010000000

 Mix parameter (when DIIS does not apply):           0.2000000000
 Mixed ADIIS+SDIIS will be used                  
    Max number of expansion vectors:                10
    Pure ADIIS when Max([F,P]) is above              0.1000000000
    Pure SDIIS when Max([F,P]) is below              0.0010000000
 Automatic ElectronSmearing (in case of problematic SCF convergence) disabled



 =================
 P R E C I S I O N  ***  (General: NumInt, NeglectFunctionTails, ...)  ***
 =================
  

 NumInt:           Target precision:                 6.0000000000
 -------           Initial precision:                6.0000000000
                   Min. precision (optimization):    6.0000000000

 Neglect Functions:          Basis functions:        0.1000000000E-07
 ------------------          Fit functions:          0.1000000000E-07



 ===========================
 L I N E A R   S C A L I N G
 ===========================
  

 Cut-off radii density fit:                        0.1000000000E-09
 Overlap cut-off criterion AO matrix elements:     0.1000000000E-07
 Cut-offs for Coulomb potential and fitted density:0.1000000000E-09
 Cut-off criterion for Coulomb multipole terms:    0.1000000000E-09
 Progressive Convergence parameter:                 0.000000000    
1
 ***************************************************************************************************



                                            ***************************
                                            *  C O M P U T A T I O N  *
                                            ***************************
  

 Number of elements of the density matrix on this node (used, total):      3492     31878



 ===========================================
 Numerical Integration : Fuzzy Cells (Becke)
 ===========================================
  
 Becke grid quality: GOOD           
  
 Lebedev angular grid order:             min:  11 max:  31
 Nr. of radial points:                   min:  54 max:  61

 Total nr. of points:     149852
 Nr. of blocks:             1171
 Block length:               128
 Nr. of dummy points:         36


 Test of Precision of the Numerical Integration Grid
 ===================================================

 Integral of the Total Core Density:                   0.00000000000000



 ========================
 Density Fitting (zlmFit)
 ========================
  
 ZlmFit Fit Quality: GOOD           
  
 Max L-expansion:                        min:   8 max:   9
 Nr. of radial interpolation points:     min:  78 max:  96



 =====
 S C F  ***  ScaSCF  ***
 =====
  
 Initial density matrix is calculated as sum of fragments

 CYCLE    1
 SCF Error: norm([F,P])=      6.107020084691, max([F,P])=      0.982638415816
 orbitals (Q,E):
 ---------------
 A :12...31          ( 2.00    -0.6579)  ( 2.00    -0.6265)  ( 2.00    -0.5813)  ( 2.00    -0.5653)
                     ( 2.00    -0.5653)  ( 2.00    -0.5037)  ( 2.00    -0.4950)  ( 2.00    -0.4950)
                     ( 2.00    -0.4024)  ( 2.00    -0.4024)  ( 0.00    -0.2044)  ( 0.00    -0.2044)
                     ( 0.00    -0.0662)  ( 0.00    -0.0595)  ( 0.00    -0.0319)  ( 0.00    -0.0319)
                     ( 0.00    -0.0008)  ( 0.00    -0.0008)  ( 0.00     0.0354)  ( 0.00     0.0525)

 CYCLE    2
   MIX coefficients:  0.8000  0.2000
 SCF Error: norm([F,P])=      0.913872836877, max([F,P])=      0.190989984983
 orbitals (Q,E):
 ---------------
 A :12...22          ( 2.00    -0.5919)  ( 2.00    -0.5404)  ( 2.00    -0.5245)  ( 2.00    -0.4964)
                     ( 2.00    -0.4964)  ( 2.00    -0.4344)  ( 2.00    -0.4263)  ( 2.00    -0.4263)
                     ( 2.00    -0.3333)  ( 2.00    -0.3333)  ( 0.00    -0.1377)

 CYCLE    3
  SDIIS (wt  0.000): -1.2841  2.2841
 A-DIIS (wt  1.000):  0.0000  1.0000
  DIIS coefficients:  0.0000  1.0000
 SCF Error: norm([F,P])=      0.537728598697, max([F,P])=      0.105230358769
 orbitals (Q,E):
 ---------------
 A :12...22          ( 2.00    -0.3880)  ( 2.00    -0.3433)  ( 2.00    -0.2845)  ( 2.00    -0.2845)
                     ( 2.00    -0.2828)  ( 2.00    -0.2371)  ( 2.00    -0.2088)  ( 2.00    -0.2088)
                     ( 2.00    -0.1376)  ( 2.00    -0.1376)  ( 0.00     0.0066)

 CYCLE    4
  SDIIS (wt  0.000):  0.0278  0.5642  0.4080
 A-DIIS (wt  1.000):  0.0000  0.6574  0.3426
  DIIS coefficients:  0.0000  0.6574  0.3426
 SCF Error: norm([F,P])=      0.793824246834, max([F,P])=      0.185164586454
 orbitals (Q,E):
 ---------------
 A :12...22          ( 2.00    -0.4591)  ( 2.00    -0.3922)  ( 2.00    -0.3836)  ( 2.00    -0.3603)
                     ( 2.00    -0.3603)  ( 2.00    -0.3215)  ( 2.00    -0.2843)  ( 2.00    -0.2843)
                     ( 2.00    -0.2184)  ( 2.00    -0.2184)  ( 0.00    -0.0249)

 CYCLE    5
  SDIIS (wt  0.856): -0.0797  0.2926  0.0323  0.7548
 A-DIIS (wt  0.144):  0.0000  0.0000  0.0000  1.0000
  DIIS coefficients: -0.0682  0.2503  0.0276  0.7902
 SCF Error: norm([F,P])=      0.089494636425, max([F,P])=      0.015295475782
 orbitals (Q,E):
 ---------------
 A :12...22          ( 2.00    -0.4731)  ( 2.00    -0.4084)  ( 2.00    -0.4021)  ( 2.00    -0.3743)
                     ( 2.00    -0.3742)  ( 2.00    -0.3326)  ( 2.00    -0.3004)  ( 2.00    -0.3004)
                     ( 2.00    -0.2304)  ( 2.00    -0.2304)  ( 0.00    -0.0371)

 CYCLE    6
  SDIIS (wt  0.973): -0.0241  0.0588  0.0052  0.2086  0.7514
 A-DIIS (wt  0.027):  0.0000  0.0000  0.0000  0.0000  1.0000
  DIIS coefficients: -0.0234  0.0572  0.0050  0.2029  0.7583
 SCF Error: norm([F,P])=      0.017354979815, max([F,P])=      0.003714313463
 orbitals (Q,E):
 ---------------
 A :12...22          ( 2.00    -0.4714)  ( 2.00    -0.4065)  ( 2.00    -0.3991)  ( 2.00    -0.3725)
                     ( 2.00    -0.3725)  ( 2.00    -0.3303)  ( 2.00    -0.2983)  ( 2.00    -0.2983)
                     ( 2.00    -0.2280)  ( 2.00    -0.2280)  ( 0.00    -0.0348)

 CYCLE    7
  SDIIS (wt  1.000): -0.0016  0.0040 -0.0001  0.0202  0.1094  0.8682
  DIIS coefficients: -0.0016  0.0040 -0.0001  0.0202  0.1094  0.8682
 SCF Error: norm([F,P])=      0.001060911787, max([F,P])=      0.000271768920
 orbitals (Q,E):
 ---------------
 A :12...22          ( 2.00    -0.4714)  ( 2.00    -0.4065)  ( 2.00    -0.3992)  ( 2.00    -0.3725)
                     ( 2.00    -0.3725)  ( 2.00    -0.3304)  ( 2.00    -0.2983)  ( 2.00    -0.2983)
                     ( 2.00    -0.2281)  ( 2.00    -0.2281)  ( 0.00    -0.0349)

 CYCLE    8
  SDIIS (wt  1.000):  0.0001 -0.0002 -0.0000 -0.0005 -0.0005  0.0417  0.9595
  DIIS coefficients:  0.0001 -0.0002 -0.0000 -0.0005 -0.0005  0.0417  0.9595
 SCF Error: norm([F,P])=      0.000052933143, max([F,P])=      0.000011831364
 orbitals (Q,E):
 ---------------
 A :12...22          ( 2.00    -0.4714)  ( 2.00    -0.4065)  ( 2.00    -0.3992)  ( 2.00    -0.3725)
                     ( 2.00    -0.3725)  ( 2.00    -0.3304)  ( 2.00    -0.2983)  ( 2.00    -0.2983)
                     ( 2.00    -0.2281)  ( 2.00    -0.2281)  ( 0.00    -0.0348)

 CYCLE    9
  SDIIS (wt  1.000):  0.0000 -0.0001 -0.0000 -0.0004 -0.0008  0.0227  0.6034  0.3752
  DIIS coefficients:  0.0000 -0.0001 -0.0000 -0.0004 -0.0008  0.0227  0.6034  0.3752
 SCF Error: norm([F,P])=      0.000031139855, max([F,P])=      0.000006952812
 orbitals (Q,E):
 ---------------
 A :12...22          ( 2.00    -0.4714)  ( 2.00    -0.4065)  ( 2.00    -0.3992)  ( 2.00    -0.3725)
                     ( 2.00    -0.3725)  ( 2.00    -0.3304)  ( 2.00    -0.2983)  ( 2.00    -0.2983)
                     ( 2.00    -0.2281)  ( 2.00    -0.2281)  ( 0.00    -0.0348)

 CYCLE   10
  SDIIS (wt  1.000):  0.0000 -0.0000 -0.0000 -0.0000 -0.0001  0.0002  0.0026  0.0588  0.9385
  DIIS coefficients:  0.0000 -0.0000 -0.0000 -0.0000 -0.0001  0.0002  0.0026  0.0588  0.9385
 SCF Error: norm([F,P])=      0.000002072537, max([F,P])=      0.000000426844
 orbitals (Q,E):
 ---------------
 A :12...22          ( 2.00    -0.4714)  ( 2.00    -0.4065)  ( 2.00    -0.3992)  ( 2.00    -0.3725)
                     ( 2.00    -0.3725)  ( 2.00    -0.3304)  ( 2.00    -0.2983)  ( 2.00    -0.2983)
                     ( 2.00    -0.2281)  ( 2.00    -0.2281)  ( 0.00    -0.0348)

 SCF CONVERGED

 CYCLE   11
1
 ***************************************************************************************************



                                                *******************
                                                *  R E S U L T S  *
                                                *******************
  
 *** Using FIT density in Focky
  SDIIS (wt  1.000):  0.0000 -0.0000 -0.0000 -0.0000 -0.0000 -0.0001 -0.0010  0.0051  0.0962  0.8998
  DIIS coefficients:  0.0000 -0.0000 -0.0000 -0.0000 -0.0000 -0.0001 -0.0010  0.0051  0.0962  0.8998
 SCF Error: norm([F,P])=      0.000000155253, max([F,P])=      0.000000036657

 Scaled ZORA Orbital Energies, per Irrep and Spin:
 =================================================
                        Occup              E (au)              E (eV)       Diff (eV) with prev. cycle
                        -----      --------------------        ------       --------------------------
 A
              12        2.000     -0.47136737978653E+00       -12.827              -6.69E-07
              13        2.000     -0.40647029977377E+00       -11.061              -5.66E-07
              14        2.000     -0.39922138361658E+00       -10.863              -5.54E-07
              15        2.000     -0.37253881507419E+00       -10.137              -6.53E-07
              16        2.000     -0.37253696589701E+00       -10.137              -6.49E-07
              17        2.000     -0.33042542850103E+00        -8.991              -6.82E-07
              18        2.000     -0.29829795687443E+00        -8.117              -5.62E-07
              19        2.000     -0.29829378089915E+00        -8.117              -5.73E-07
              20        2.000     -0.22812089718075E+00        -6.207              -6.49E-07
              21        2.000     -0.22811772216725E+00        -6.207              -6.44E-07
              22        0.000     -0.34844035228126E-01        -0.948
              23        0.000     -0.34835028992382E-01        -0.948
              24        0.000     -0.11328243438162E-01        -0.308
              25        0.000      0.94102812375377E-02         0.256
              26        0.000      0.94194359927426E-02         0.256
              27        0.000      0.45240702584325E-01         1.231
              28        0.000      0.45243080072176E-01         1.231
              29        0.000      0.81917719488947E-01         2.229
              30        0.000      0.11138333388423E+00         3.031
              31        0.000      0.14079616109555E+00         3.831
  
 HOMO :       21 A                -0.22811772216725E+00
 LUMO :       22 A                -0.34844035228126E-01
  


 All Electron Calculation, thus no Orbital Energies of the Core Orbitals are calculated


 Fit test: (difference of exact and fit density, squared integrated, result summed over spins)
         Sum-of-Fragments:                             0.00000000073040
         Orthogonalized Fragments:                     0.00001514979013
         SCF:                                          0.00002169954050



 ==========================
 Electron Density at Nuclei
 ==========================
  
 The electron density is calculated at points on a small sphere around the center of a nucleus.
 The printed electron density is the average electron density on these points.
 The radius of the sphere is the printed approximate finite nuclear radius.
 Note: ZORA-4 density is used, which includes small component density

         Atom        Nuclear Radius (Angstrom)             Electron Density (a.u.)
         ----        -------------------------             -----------------------
     1)   C                 0.0000320678                              126.83202
     2)   C                 0.0000320678                              126.83202
     3)   C                 0.0000320678                              126.82988
     4)   C                 0.0000320678                              126.83202
     5)   C                 0.0000320678                              126.83202
     6)   C                 0.0000320678                              126.82988
     7)   H                 0.0000181514                                0.50347
     8)   H                 0.0000181514                                0.50347
     9)   H                 0.0000181514                                0.50339
    10)   H                 0.0000181514                                0.50347
    11)   H                 0.0000181514                                0.50347
    12)   H                 0.0000181514                                0.50339



 =======================================
 M U L L I K E N   P O P U L A T I O N S
 =======================================
  
 The survey below gives for each atom:
 a) the total charge (Z minus electrons)
 b) the net spin polarization (nr of electrons spin-A minus spin-B)
 c) for each spin the atomic electron valence density (integrated) per L-value.

 Atom              Charge    Spin density          S         P         D         F
 ----              ------    ------------       ------    ------    ------    ------
 1 C               0.2443                       3.0880    2.6024    0.0604    0.0049
 2 C               0.2443                       3.0880    2.6024    0.0604    0.0049
 3 C               0.2445                       3.0878    2.6024    0.0604    0.0049
 4 C               0.2443                       3.0880    2.6024    0.0604    0.0049
 5 C               0.2443                       3.0880    2.6024    0.0604    0.0049
 6 C               0.2445                       3.0878    2.6024    0.0604    0.0049
 7 H              -0.2443                       1.1663    0.0729    0.0051    0.0000
 8 H              -0.2443                       1.1663    0.0729    0.0051    0.0000
 9 H              -0.2445                       1.1664    0.0729    0.0051    0.0000
 10 H             -0.2443                       1.1663    0.0729    0.0051    0.0000
 11 H             -0.2443                       1.1663    0.0729    0.0051    0.0000
 12 H             -0.2445                       1.1664    0.0729    0.0051    0.0000

 Populations of individual BAS functions
 ----------------------------------------
 1 C            0.4727  1.5476  0.2596  0.8870 -0.0789 -0.2527 -0.1782  0.1325  0.8667  0.8307
                0.6936  0.1858  0.1922  0.1317  0.0173  0.0210  0.0065  0.0229  0.0106 -0.0180
                0.0032  0.0008  0.0030  0.0030  0.0003 -0.0043  0.0053  0.0050 -0.0048 -0.0065
 2 C            0.4727  1.5476  0.2596  0.8870 -0.0789 -0.2527 -0.1782  0.1325  0.8667  0.8307
                0.6936  0.1858  0.1922  0.1317  0.0173  0.0210  0.0065  0.0229  0.0106 -0.0180
                0.0032  0.0008  0.0030  0.0030  0.0003 -0.0043  0.0053  0.0050 -0.0048 -0.0065
 3 C            0.4726  1.5477  0.2593  0.8872 -0.0789 -0.1408 -0.2900  0.1325  0.8126  0.8848
                0.6936  0.1954  0.1826  0.1317  0.0277  0.0171  0.0126  0.0165  0.0045 -0.0180
                0.0061  0.0040  0.0058  0.0007  0.0006 -0.0050  0.0014  0.0018 -0.0041 -0.0065
 4 C            0.4727  1.5476  0.2596  0.8870 -0.0789 -0.2527 -0.1782  0.1325  0.8667  0.8307
                0.6936  0.1858  0.1922  0.1317  0.0173  0.0210  0.0065  0.0229  0.0106 -0.0180
                0.0032  0.0008  0.0030  0.0030  0.0003 -0.0043  0.0053  0.0050 -0.0048 -0.0065
 5 C            0.4727  1.5476  0.2596  0.8870 -0.0789 -0.2527 -0.1782  0.1325  0.8667  0.8307
                0.6936  0.1858  0.1922  0.1317  0.0173  0.0210  0.0065  0.0229  0.0106 -0.0180
                0.0032  0.0008  0.0030  0.0030  0.0003 -0.0043  0.0053  0.0050 -0.0048 -0.0065
 6 C            0.4726  1.5477  0.2593  0.8872 -0.0789 -0.1408 -0.2900  0.1325  0.8126  0.8848
                0.6936  0.1954  0.1826  0.1317  0.0277  0.0171  0.0126  0.0165  0.0045 -0.0180
                0.0061  0.0040  0.0058  0.0007  0.0006 -0.0050  0.0014  0.0018 -0.0041 -0.0065
 7 H            0.3413  0.5062  0.3188  0.0296  0.0216  0.0217  0.0077  0.0014  0.0012 -0.0009
                0.0005 -0.0047
 8 H            0.3413  0.5062  0.3188  0.0296  0.0216  0.0217  0.0077  0.0014  0.0012 -0.0009
                0.0005 -0.0047
 9 H            0.3409  0.5069  0.3186  0.0176  0.0336  0.0217 -0.0055  0.0020  0.0001  0.0116
                0.0016 -0.0047
 10 H           0.3413  0.5062  0.3188  0.0296  0.0216  0.0217  0.0077  0.0014  0.0012 -0.0009
                0.0005 -0.0047
 11 H           0.3413  0.5062  0.3188  0.0296  0.0216  0.0217  0.0077  0.0014  0.0012 -0.0009
                0.0005 -0.0047
 12 H           0.3409  0.5069  0.3186  0.0176  0.0336  0.0217 -0.0055  0.0020  0.0001  0.0116
                0.0016 -0.0047

 Gross Charges per Atom (Z minus electrons)
 ==========================================
             0.2443    0.2443    0.2445    0.2443    0.2443    0.2445   -0.2443   -0.2443   -0.2445   -0.2443
            -0.2443   -0.2445
 Net Total: -0.00000000


 Atom-Atom Population Matrix (off-diagonal elements not doubled)
 ===============================================================

     1 :     4.5148
     2 :     0.5368    4.5148
     3 :    -0.0089    0.5369    4.5148
     4 :    -0.0547   -0.0089    0.5369    4.5148
     5 :    -0.0089   -0.0547   -0.0089    0.5368    4.5148
     6 :     0.5369   -0.0089   -0.0547   -0.0089    0.5369    4.5148
     7 :     0.3816   -0.0758    0.0034    0.0029    0.0034   -0.0759    1.1339
     8 :    -0.0758    0.3816   -0.0759    0.0034    0.0029    0.0034   -0.0598    1.1339
     9 :     0.0034   -0.0758    0.3814   -0.0758    0.0034    0.0029   -0.0055   -0.0598    1.1342
    10 :     0.0029    0.0034   -0.0759    0.3816   -0.0758    0.0034    0.0013   -0.0054   -0.0598    1.1339
    11 :     0.0034    0.0029    0.0034   -0.0758    0.3816   -0.0759   -0.0054    0.0013   -0.0055   -0.0598
             1.1339
    12 :    -0.0758    0.0034    0.0029    0.0034   -0.0758    0.3814   -0.0598   -0.0055    0.0013   -0.0055
            -0.0598    1.1342



 =================================================
 H I R S H F E L D   C H A R G E   A N A L Y S I S
 =================================================
  
 For each fragment: the (numerical) integral of rho(scf) * rho(fragment)/rho(sum-of-fragments)
 (nuclear charges are included, electrons are counted negative)

 The fragments and their ordering are defined in the early G E O M E T R Y output section.
 If you use single-atom fragments, this usually implies that all atoms of the same
 chemical type are grouped together. This may not be the order in which you listed them
 in the input file!

    1  C                        -0.0464
    2  C                        -0.0464
    3  C                        -0.0464
    4  C                        -0.0464
    5  C                        -0.0464
    6  C                        -0.0464
    7  H                         0.0464
    8  H                         0.0464
    9  H                         0.0464
   10  H                         0.0464
   11  H                         0.0464
   12  H                         0.0464

 Sum of these charges (accuracy NumInt/Tails) =           0.00001254



 =============================
 V O R O N O I   C H A R G E S
 =============================
  
 For each atom: the (numerical) integral of the total electronic charge density in its Voronoi cell,
 i.e. the region of space that is closer to that atom than to any other atom.
 (cf. Wigner-Seitz cells in crystals)

 Within the Voronoi cell the subintegrals over the atomic sphere and the remaining part are evaluated
 separately to give the numbers of electrons (negative charge) in these regions.
 The net total charge in the cell (including the nuclear charge) is also given.

 Values are provided for
    a) the Initial (sum-of-fragments) density
    b) the Orthogonalized-Fragments density
    c) the SCF density
    d) the Voronoi Deformation Density (VDD): the difference SCF-Initial for the complete atomic cell


  Atom                Initial                    OrthFrag                   SCF
             Sphere RestCell NetTotal   Sphere RestCell NetTotal   Sphere RestCell NetTotal      VDD
 -----       ------------------------   ------------------------   ------------------------    -----
    1 C      -2.114   -3.340    0.546   -2.233   -3.351    0.416   -2.135   -3.372    0.493   -0.053
    2 C      -2.114   -3.340    0.546   -2.233   -3.351    0.416   -2.135   -3.372    0.493   -0.053
    3 C      -2.114   -3.355    0.532   -2.233   -3.365    0.402   -2.135   -3.388    0.477   -0.054
    4 C      -2.114   -3.340    0.546   -2.233   -3.351    0.416   -2.135   -3.372    0.493   -0.053
    5 C      -2.114   -3.340    0.546   -2.233   -3.351    0.416   -2.135   -3.372    0.493   -0.053
    6 C      -2.114   -3.355    0.532   -2.233   -3.365    0.402   -2.135   -3.388    0.477   -0.054
    7 H      -0.093   -1.451   -0.544   -0.117   -1.298   -0.415   -0.133   -1.359   -0.492    0.051
    8 H      -0.093   -1.451   -0.544   -0.117   -1.298   -0.415   -0.133   -1.359   -0.492    0.051
    9 H      -0.093   -1.443   -0.536   -0.117   -1.287   -0.404   -0.133   -1.346   -0.479    0.056
   10 H      -0.093   -1.451   -0.544   -0.117   -1.298   -0.415   -0.133   -1.359   -0.492    0.051
   11 H      -0.093   -1.451   -0.544   -0.117   -1.298   -0.415   -0.133   -1.359   -0.492    0.051
   12 H      -0.093   -1.443   -0.536   -0.117   -1.287   -0.404   -0.133   -1.346   -0.479    0.056
 ---------------------------------------------------------------------------------------------------
 Total NetCharge:               0.000                      0.000                      0.000   -0.000
 (accuracy NumInt/Tails)

 Remark: the 'NetTotal' Voronoi charges often do not match the Mulliken and/or Hirshfeld charges very
 well. This is caused by the fact that chemically different atoms are not treated in accordance with
 their relative sizes. (Voronoi cells are defined by boundary planes halfway between the atoms.)
 However, the CHANGES in charge, comparing 'Initial' to 'SCF' for instance, do give a fair indication
 of the flow of charge caused by the relaxation from sum-of-fragments to self-consistency.

 Warning: the absolute accuracy of the VDD charges obtained using the Fuzzy Cells (Becke) integration
 scheme is much poorer than the one obtained with an 'equivalent' Voronoi integration grid. 



 =================================================================
 M U L T I P O L E   D E R I V E D   C H A R G E   A N A L Y S I S
 =================================================================

 This charge analysis uses the atomic multipoles (obtained from the fitted density) up to some level X,
 and reconstructs these multipoles exactly (up to level X) by distributing charges over all atoms.
 This is achieved by using Lagrange multipliers and a weight function to keep the multipoles local.

 Dummy atoms can be included (by setting INCDUM in MDC-block to 1) to obtain a fractional charge.
 This is generally useful and necessary only for small symmetrical molecules, when there are not
 enough degrees of freedom to reconstruct the multipoles.

 Since the atomic multipoles are reconstructed up to level X,
 the molecular multipoles are represented also up to level X.
 The recommended level is to reconstruct up to quadrupole : -> MDC-q charges.

 See: M. Swart, P.Th. van Duijnen, J.G. Snijders, J.Comput.Chem., (2001), p. 79-88.

 ------------------------------------------------------------- 
 Atomic electronic multipole moments from SCF equations (a.u.)
 ------------------------------------------------------------- 

   atom        charge        dip-x     dip-y     dip-z      quad-xx   quad-xy   quad-xz   quad-yy   quad-yz   quad-zz
 --------------------------------------------------------------------------------------------------------------------
    1 C      0.062403     0.038709 -0.022345 -0.000000     0.486041 -0.014579 -0.000000  0.460769  0.000000 -0.946810
    2 C      0.062403     0.038709  0.022345 -0.000000     0.486041  0.014579 -0.000000  0.460769  0.000000 -0.946810
    3 C      0.062418     0.000000  0.044715  0.000000     0.448115 -0.000000  0.000000  0.498580  0.000000 -0.946695
    4 C      0.062403    -0.038709  0.022345  0.000000     0.486041 -0.014579 -0.000000  0.460769 -0.000000 -0.946810
    5 C      0.062403    -0.038709 -0.022345 -0.000000     0.486041  0.014579  0.000000  0.460769 -0.000000 -0.946810
    6 C      0.062418    -0.000000 -0.044715  0.000000     0.448115  0.000000 -0.000000  0.498580 -0.000000 -0.946695
    7 H     -0.062407     0.017792 -0.010279 -0.000000     0.153121 -0.071050 -0.000000  0.030020 -0.000000 -0.183141
    8 H     -0.062407     0.017792  0.010279  0.000000     0.153121  0.071050 -0.000000  0.030020 -0.000000 -0.183141
    9 H     -0.062411     0.000000  0.020529 -0.000000    -0.031520 -0.000000 -0.000000  0.214652  0.000000 -0.183132
   10 H     -0.062407    -0.017792  0.010279  0.000000     0.153121 -0.071050 -0.000000  0.030020  0.000000 -0.183141
   11 H     -0.062407    -0.017792 -0.010279  0.000000     0.153121  0.071050 -0.000000  0.030020 -0.000000 -0.183141
   12 H     -0.062411     0.000000 -0.020529  0.000000    -0.031520  0.000000  0.000000  0.214652  0.000000 -0.183132

 --------------------------------------- 
 Multipole derived atomic charges (a.u.)
 --------------------------------------- 

 The MDC-m charges are just the Monopole terms in the multipole expansion, while for the MDC-d charges
 also the Dipoles are reconstructed. The usually preferred charges are the MDC-q charges.
 These reconstruct the Monopoles, Dipoles and Quadrupoles (both atomic AND molecular).

        Atom    Level:     MDC-m        MDC-d        MDC-q
 ---------------------------------------------------------
     1     C            0.062403     0.038483    -0.116237
     2     C            0.062403     0.038483    -0.116237
     3     C            0.062418     0.038503    -0.114720
     4     C            0.062403     0.038483    -0.116237
     5     C            0.062403     0.038483    -0.116237
     6     C            0.062418     0.038503    -0.114720
     7     H           -0.062407    -0.038488     0.115890
     8     H           -0.062407    -0.038488     0.115890
     9     H           -0.062411    -0.038493     0.115414
    10     H           -0.062407    -0.038488     0.115890
    11     H           -0.062407    -0.038488     0.115890
    12     H           -0.062411    -0.038493     0.115414

 ------------------------------------------------ 
 Average absolute deviations in atomic multipoles
 ------------------------------------------------ 

 Stated here are the average differences between the atomic multipoles
 and the reconstructed atomic multipoles (from the distributed charges).
 If these values are not zero, this means there are not enough degrees of freedom,
 to be able to reconstruct the atomic multipoles. (This usually happens only
 for small and/or highly symmetric molecules). If this is the case, one could add
 dummy atoms as extra point charges (and setting INCDUM in MDC-block to 1).

 Level:                                 MDC-d        MDC-q
 ---------------------------------------------------------
 Charge   (a.u.)                       0.0000       0.0000
 Dipole   (Debye)                      0.0000       0.0000
 Quad.    (a.u.)                       0.2012       0.0000

 --------------------------------------- 
 Represented molecular multipole moments
 --------------------------------------- 

 Given here are the Molecular multipole moments from the atomic charges, and from the Fit Density.
 Note that the atomic charges represent the latter, NOT the ones from the Exact density.

            Q (a.u.)             Dipole moment (Debye)                                          Quadrupole moment (a.u.)
                                 x         y         z              xx        xy        xz        yy        yz        zz
------------------------------------------------------------------------------------------------------------------------
MDC-m         0.0000       -0.0000    0.0000    0.0000         -1.4116    0.0000    0.0000   -1.4115    0.0000    2.8231
MDC-d         0.0000       -0.0000    0.0000    0.0000         -0.8706    0.0000    0.0000   -0.8705    0.0000    1.7411
MDC-q         0.0000       -0.0000    0.0000    0.0000          2.6177    0.0000    0.0000    2.6175    0.0000   -5.2352
 
Fit.Dens.     0.0000       -0.0000    0.0000   -0.0000          2.6177    0.0000   -0.0000    2.6175    0.0000   -5.2352



 =============
 Dipole Moment  ***  (Debye)  ***
 =============
  
 Vector   :        -0.00000004      0.00000011     -0.00000000
 Magnitude:         0.00000012

 This molecular dipole moment is calculated with analytic integration



 =========================================
 Quadrupole Moment (Buckingham convention)  ***  (a.u.)  ***
 =========================================
  
      quad-xx        quad-xy        quad-xz        quad-yy        quad-yz        quad-zz
      2.61871492     0.00000002    -0.00000001     2.61876027    -0.00000000    -5.23747519

 This molecular quadrupole moment is calculated with analytic integration
1



 ===========================
 B O N D I N G   E N E R G Y  ***  (decomposition)  ***
 ===========================
  
*** IMPORTANT NOTE ***

The bond energy is computed as an energy difference between molecule and
fragments. In particular when the fragments are single atoms, they are usually
computed as SPHERICALLY SYMMETRIC and SPIN-RESTRICTED. Obviously, this usually
does NOT represent the true atomic groundstate.

To obtain the 'real' bond energy, (atomic) correction terms must be applied
for the true (multiplet) fragment ground state. See ref: E.J.Baerends,
V.Branchadell, M.Sodupe, Chem.Phys.Lett.265 (1997) 481

General theoretical background on the bond energy decomposition scheme used
here (Morokuma-Ziegler) can be found in the review paper:
F.M. Bickelhaupt and E.J. Baerends,
"Kohn-Sham Density Functional Theory: Predicting and Understanding Chemistry"
In: Rev. Comput. Chem.; Lipkowitz, K. B. and Boyd, D. B., Eds.;
Wiley-VCH: New York, 2000, Vol. 15, 1-86.

Symbols used in the Bickelhaupt-Baerends (BB) paper are given below to make
the direct connection to that paper, where detailed explanations can be found
on the meaning of the various terms.


                                                   hartree              eV         kcal/mol           kJ/mol
                                      --------------------     -----------       ----------      -----------

Pauli Repulsion
  Kinetic (Delta T^0):                  26.995761677053885        734.5921         16940.10         70877.36
  Delta V^Pauli Coulomb:               -12.186818326331004       -331.6202         -7647.34        -31996.49
  Delta V^Pauli LDA-XC:                 -3.261516890399655        -88.7504         -2046.63         -8563.11
  Delta V^Pauli GGA-Exchange:            0.268932543770301          7.3180           168.76           706.08
[...]
                                    8.60%     1 P:z            -5.135  0.67     5 C
                                    8.60%     1 P:z            -5.135  0.67     2 C
                                   -3.93%     2 P:z             4.559  0.00     6 C
                                   -3.93%     2 P:z             4.559  0.00     3 C
                                    1.40%     1 P:z            11.162  0.00    12 H
                                    1.40%     1 P:z            11.162  0.00     9 H
      -0.308  0.00    24 A         12.40%     2 S               2.096  0.00     7 H
                                   12.40%     2 S               2.096  0.00    11 H
                                   12.40%     2 S               2.096  0.00    10 H
                                   12.40%     2 S               2.096  0.00     8 H
                                   12.39%     2 S               2.096  0.00    12 H
                                   12.39%     2 S               2.096  0.00     9 H
                                    7.09%     1 S              -6.484  1.00     7 H
                                    7.09%     1 S              -6.484  1.00    11 H
                                    7.09%     1 S              -6.484  1.00    10 H
                                    7.09%     1 S              -6.484  1.00     8 H
                                    7.09%     1 S              -6.484  1.00    12 H
                                    7.09%     1 S              -6.484  1.00     9 H
                                   -2.93%     3 S              10.456  0.00     1 C
                                   -2.93%     3 S              10.456  0.00     5 C
                                   -2.93%     3 S              10.456  0.00     2 C
                                   -2.93%     3 S              10.456  0.00     4 C
                                   -2.93%     3 S              10.456  0.00     6 C
                                   -2.93%     3 S              10.456  0.00     3 C
       0.256  0.00    25 A         27.33%     2 S               2.096  0.00     7 H
                                   27.33%     2 S               2.096  0.00    10 H
                                   27.33%     2 S               2.096  0.00    11 H
                                   27.33%     2 S               2.096  0.00     8 H
                                   16.20%     1 S              -6.484  1.00     7 H
                                   16.20%     1 S              -6.484  1.00    10 H
                                   16.20%     1 S              -6.484  1.00    11 H
                                   16.20%     1 S              -6.484  1.00     8 H
                                  -12.29%     2 P:x             4.559  0.00     1 C
                                  -12.29%     2 P:x             4.559  0.00     4 C
                                  -12.29%     2 P:x             4.559  0.00     5 C
                                  -12.29%     2 P:x             4.559  0.00     2 C
                                  -10.95%     2 P:x             4.559  0.00     3 C
                                  -10.95%     2 P:x             4.559  0.00     6 C
                                   -2.46%     1 P:x            -5.135  0.67     6 C
                                   -2.46%     1 P:x            -5.135  0.67     3 C
       0.256  0.00    26 A         36.44%     2 S               2.096  0.00     9 H
                                   36.44%     2 S               2.096  0.00    12 H
                                   21.59%     1 S              -6.484  1.00     9 H
                                   21.59%     1 S              -6.484  1.00    12 H
                                  -12.50%     2 P:y             4.559  0.00     6 C
                                  -12.50%     2 P:y             4.559  0.00     3 C
                                  -11.51%     2 P:y             4.559  0.00     2 C
                                  -11.51%     2 P:y             4.559  0.00     5 C
                                  -11.51%     2 P:y             4.559  0.00     1 C
                                  -11.51%     2 P:y             4.559  0.00     4 C
                                    9.11%     2 S               2.096  0.00     8 H
                                    9.11%     2 S               2.096  0.00    11 H
                                    9.11%     2 S               2.096  0.00    10 H
                                    9.11%     2 S               2.096  0.00     7 H
                                    5.40%     1 S              -6.484  1.00     8 H
                                    5.40%     1 S              -6.484  1.00    11 H
                                    5.40%     1 S              -6.484  1.00     7 H
                                    5.40%     1 S              -6.484  1.00    10 H
                                   -1.91%     1 P:y            -5.135  0.67     1 C
                                   -1.91%     1 P:y            -5.135  0.67     4 C
                                   -1.91%     1 P:y            -5.135  0.67     2 C
                                   -1.91%     1 P:y            -5.135  0.67     5 C
       1.231  0.00    27 A         26.67%     2 S               2.096  0.00     9 H
                                   26.67%     2 S               2.096  0.00    12 H
                                   25.82%     1 S              -6.484  1.00    12 H
                                   25.82%     1 S              -6.484  1.00     9 H
                                  -23.95%     2 P:y             4.559  0.00     6 C
                                  -23.95%     2 P:y             4.559  0.00     3 C
                                   -7.03%     2 P:x             4.559  0.00     1 C
                                   -7.03%     2 P:x             4.559  0.00     4 C
                                   -7.03%     2 P:x             4.559  0.00     5 C
                                   -7.03%     2 P:x             4.559  0.00     2 C
                                    6.67%     2 S               2.096  0.00     7 H
                                    6.67%     2 S               2.096  0.00    10 H
                                    6.66%     2 S               2.096  0.00    11 H
                                    6.66%     2 S               2.096  0.00     8 H
                                    6.45%     1 S              -6.484  1.00     7 H
                                    6.45%     1 S              -6.484  1.00    10 H
                                    6.45%     1 S              -6.484  1.00    11 H
                                    6.45%     1 S              -6.484  1.00     8 H
                                    2.68%     1 P:y            -5.135  0.67     1 C
                                    2.68%     1 P:y            -5.135  0.67     4 C
                                    2.68%     1 P:y            -5.135  0.67     5 C
                                    2.68%     1 P:y            -5.135  0.67     2 C
                                   -2.54%     3 S              10.456  0.00     6 C
                                   -2.54%     3 S              10.456  0.00     3 C
                                    2.37%     3 S              41.380  0.00    12 H
                                    2.37%     3 S              41.380  0.00     9 H
                                    2.36%     2 S             -13.802  2.00     6 C
                                    2.36%     2 S             -13.802  2.00     3 C
                                    2.19%     2 P:y             4.559  0.00     5 C
                                    2.19%     2 P:y             4.559  0.00     2 C
                                    2.19%     2 P:y             4.559  0.00     1 C
                                    2.19%     2 P:y             4.559  0.00     4 C
                                   -1.88%     1 P:x            -5.135  0.67     1 C
                                   -1.88%     1 P:x            -5.135  0.67     4 C
                                   -1.88%     1 P:x            -5.135  0.67     5 C
                                   -1.88%     1 P:x            -5.135  0.67     2 C
                                   -1.12%     1 P:y            -5.135  0.67     6 C
                                   -1.12%     1 P:y            -5.135  0.67     3 C
       1.231  0.00    28 A         20.00%     2 S               2.096  0.00     8 H
                                   20.00%     2 S               2.096  0.00    11 H
                                   20.00%     2 S               2.096  0.00    10 H
                                   20.00%     2 S               2.096  0.00     7 H
                                   19.36%     1 S              -6.484  1.00     8 H
                                   19.36%     1 S              -6.484  1.00    11 H
                                   19.36%     1 S              -6.484  1.00     7 H
                                   19.36%     1 S              -6.484  1.00    10 H
                                  -10.55%     2 P:x             4.559  0.00     2 C
                                  -10.55%     2 P:x             4.559  0.00     5 C
                                  -10.54%     2 P:x             4.559  0.00     1 C
                                  -10.54%     2 P:x             4.559  0.00     4 C
                                   -7.04%     2 P:y             4.559  0.00     2 C
                                   -7.04%     2 P:y             4.559  0.00     5 C
                                   -7.03%     2 P:y             4.559  0.00     1 C
                                   -7.03%     2 P:y             4.559  0.00     4 C
                                   -1.91%     3 S              10.456  0.00     5 C
                                   -1.91%     3 S              10.456  0.00     2 C
                                   -1.90%     3 S              10.456  0.00     4 C
                                   -1.90%     3 S              10.456  0.00     1 C
                                   -1.88%     1 P:y            -5.135  0.67     1 C
                                   -1.88%     1 P:y            -5.135  0.67     4 C
                                   -1.88%     1 P:y            -5.135  0.67     2 C
                                   -1.88%     1 P:y            -5.135  0.67     5 C
                                    1.78%     3 S              41.380  0.00     8 H
                                    1.78%     3 S              41.380  0.00    11 H
                                    1.77%     3 S              41.380  0.00     7 H
                                    1.77%     3 S              41.380  0.00    10 H
                                    1.77%     2 S             -13.802  2.00     5 C
                                    1.77%     2 S             -13.802  2.00     2 C
                                    1.77%     2 S             -13.802  2.00     4 C
                                    1.77%     2 S             -13.802  2.00     1 C
                                    1.52%     2 P:x             4.559  0.00     6 C
                                    1.52%     2 P:x             4.559  0.00     3 C
                                    1.44%     1 P:x            -5.135  0.67     6 C
                                    1.44%     1 P:x            -5.135  0.67     3 C
                                    1.40%     1 P:x            -5.135  0.67     1 C
                                    1.40%     1 P:x            -5.135  0.67     4 C
                                    1.40%     1 P:x            -5.135  0.67     2 C
                                    1.40%     1 P:x            -5.135  0.67     5 C
       2.229  0.00    29 A         21.64%     1 S              -6.484  1.00     9 H
                                   21.64%     1 S              -6.484  1.00    12 H
                                   21.64%     1 S              -6.484  1.00    11 H
                                   21.64%     1 S              -6.484  1.00     8 H
                                   21.64%     1 S              -6.484  1.00    10 H
                                   21.64%     1 S              -6.484  1.00     7 H
                                  -15.53%     2 P:y             4.559  0.00     3 C
                                  -15.53%     2 P:y             4.559  0.00     6 C
                                  -11.64%     2 P:x             4.559  0.00     2 C
                                  -11.64%     2 P:x             4.559  0.00     5 C
                                  -11.64%     2 P:x             4.559  0.00     4 C
                                  -11.64%     2 P:x             4.559  0.00     1 C
                                    6.45%     2 S               2.096  0.00     9 H
                                    6.45%     2 S               2.096  0.00    12 H
                                    6.45%     2 S               2.096  0.00    11 H
                                    6.45%     2 S               2.096  0.00     8 H
                                    6.45%     2 S               2.096  0.00    10 H
                                    6.45%     2 S               2.096  0.00     7 H
                                   -3.88%     2 P:y             4.559  0.00     5 C
                                   -3.88%     2 P:y             4.559  0.00     4 C
                                   -3.88%     2 P:y             4.559  0.00     2 C
                                   -3.88%     2 P:y             4.559  0.00     1 C
                                    2.39%     3 S              41.380  0.00     9 H
                                    2.39%     3 S              41.380  0.00    12 H
                                    2.39%     3 S              41.380  0.00    10 H
                                    2.39%     3 S              41.380  0.00    11 H
                                    2.39%     3 S              41.380  0.00     8 H
                                    2.39%     3 S              41.380  0.00     7 H
                                    1.35%     3 S              10.456  0.00     1 C
                                    1.35%     3 S              10.456  0.00     2 C
                                    1.35%     3 S              10.456  0.00     4 C
                                    1.35%     3 S              10.456  0.00     5 C
                                    1.35%     3 S              10.456  0.00     6 C
                                    1.35%     3 S              10.456  0.00     3 C
       3.031  0.00    30 A         21.45%     1 P:z            -5.135  0.67     3 C
                                   21.45%     1 P:z            -5.135  0.67     6 C
                                   21.45%     1 P:z            -5.135  0.67     4 C
                                   21.45%     1 P:z            -5.135  0.67     2 C
                                   21.45%     1 P:z            -5.135  0.67     5 C
                                   21.45%     1 P:z            -5.135  0.67     1 C
                                   -6.21%     2 P:z             4.559  0.00     4 C
                                   -6.21%     2 P:z             4.559  0.00     2 C
                                   -6.21%     2 P:z             4.559  0.00     5 C
                                   -6.21%     2 P:z             4.559  0.00     1 C
                                   -6.21%     2 P:z             4.559  0.00     3 C
                                   -6.21%     2 P:z             4.559  0.00     6 C
                                    1.31%     1 P:z            11.162  0.00     9 H
                                    1.31%     1 P:z            11.162  0.00    12 H
                                    1.31%     1 P:z            11.162  0.00    10 H
                                    1.31%     1 P:z            11.162  0.00     8 H
                                    1.31%     1 P:z            11.162  0.00     7 H
                                    1.31%     1 P:z            11.162  0.00    11 H
       3.831  0.00    31 A         16.99%     2 P:z             4.559  0.00     1 C
                                   16.99%     2 P:z             4.559  0.00     5 C
                                   16.99%     2 P:z             4.559  0.00     2 C
                                   16.99%     2 P:z             4.559  0.00     4 C
                                   16.99%     2 P:z             4.559  0.00     6 C
                                   16.99%     2 P:z             4.559  0.00     3 C
       4.181  0.00    32 A          6.34%     2 S               2.096  0.00    12 H
                                    6.34%     2 S               2.096  0.00     9 H
                                    6.33%     2 S               2.096  0.00     7 H
                                    6.33%     2 S               2.096  0.00    11 H
                                    6.33%     2 S               2.096  0.00    10 H
                                    6.33%     2 S               2.096  0.00     8 H
                                    3.62%     2 P:y             4.559  0.00     3 C
                                    3.62%     2 P:y             4.559  0.00     6 C
                                    3.48%     1 S              -6.484  1.00     7 H
                                    3.48%     1 S              -6.484  1.00    11 H
                                    3.48%     1 S              -6.484  1.00     8 H
                                    3.48%     1 S              -6.484  1.00    10 H
                                    3.48%     1 S              -6.484  1.00    12 H
                                    3.48%     1 S              -6.484  1.00     9 H
                                    2.71%     2 P:x             4.559  0.00     1 C
                                    2.71%     2 P:x             4.559  0.00     5 C
                                    2.71%     2 P:x             4.559  0.00     4 C
                                    2.71%     2 P:x             4.559  0.00     2 C
                                    1.11%     1 P:y            11.162  0.00    12 H
                                    1.11%     1 P:y            11.162  0.00     9 H



 =======================================================================
 Electrostatic potential at the Nuclei due to electrons and other nuclei
 =======================================================================
  
         Atom                  Potential
         ----                  ---------
     1)   C                  14.79636792
     2)   C                  14.79636791
     3)   C                  14.79633814
     4)   C                  14.79636791
     5)   C                  14.79636791
     6)   C                  14.79633816
     7)   H                   1.11354571
     8)   H                   1.11354571
     9)   H                   1.11351785
    10)   H                   1.11354571
    11)   H                   1.11354571
    12)   H                   1.11351786
 Mulliken charges used for AMS results%charges...


    =====================
     CALCULATION RESULTS
    =====================

Energy (hartree)            -2.68820091


--------------
Atomic charges
--------------
  Index   Atom    Charge
      1      C    0.2443
      2      C    0.2443
      3      C    0.2445
      4      C    0.2443
      5      C    0.2443
      6      C    0.2445
      7      H   -0.2443
      8      H   -0.2443
      9      H   -0.2445
     10      H   -0.2443
     11      H   -0.2443
     12      H   -0.2445


Dipole moment vector    (Debye):    -0.00000004    0.00000011   -0.00000000
              magnitude (Debye):     0.00000012


AMS application finished. Exiting.
NORMAL TERMINATION
     Total cpu time:      52.89
  Total system time:       4.04
 Total elapsed time:      70.29
