

 Parallel Execution: Process Information
 ==============================================================================
 Rank   Node Name                              NodeID   MyNodeRank  NodeMaster
    0   feweb57180.feweb.vu.nl                    0          0          0
    1   feweb57180.feweb.vu.nl                    0          1         -1
    2   feweb57180.feweb.vu.nl                    0          2         -1
    3   feweb57180.feweb.vu.nl                    0          3         -1
    4   feweb57180.feweb.vu.nl                    0          4         -1
    5   feweb57180.feweb.vu.nl                    0          5         -1
    6   feweb57180.feweb.vu.nl                    0          6         -1
    7   feweb57180.feweb.vu.nl                    0          7         -1
    8   feweb57180.feweb.vu.nl                    0          8         -1
    9   feweb57180.feweb.vu.nl                    0          9         -1
 ==============================================================================


May use up to 15625MB of RAM as shared memory on node 0

 *******************************************************************************
 *                                                                             *
 *  --------------------------------                                           *
 *   Amsterdam Modeling Suite (AMS)              2022.103                      *
 *  --------------------------------                                           *
 *                                               r104886 2022-06-17            *
 *                                                                             *
 *                                                                             *
 *                              =================                              *
 *                              |               |                              *
 *                              |     A M S     |                              *
 *                              |               |                              *
 *                              =================                              *
 *                                                                             *
 *                                                                             *
 *   Online information and documentation:  https://www.scm.com/support/       *
 *   E-mail:  support@scm.com   info@scm.com                                   *
 *                                                                             *
 *   Scientific publications using AMS results must be properly referenced     *
 *   See the User Manuals (or the web site) for recommended citations          *
 *   The terms and conditions of the End User License Agreement apply to       *
 *   the use of AMS, https://www.scm.com/license-terms/                        *
 *                                                                             *
 **********************  x86_64_darwin_intel / openmpi  ************************
 
 Licensed to: Prof Visscher, Prof Bickelhaupt, Prof Fonseca Guerra / Vrije Universiteit, Theoretische Chemie / Amsterdam / NETHERLANDS 2022-12-13 09:59:29
 SCM User ID: u21794
  
 AMS 2022.103  RunTime: Sep25-2023 12:48:07  ShM Nodes: 1  Procs: 10

 AMS jobname: ams
 AMS jobid  : 994495001

 Start   directory: /Users/yumanhordijk/PhD/pi_rotation/methyl/tmp.yumanhordijk.82894.0.noindex/
 Results directory: /Users/yumanhordijk/PhD/pi_rotation/methyl/sp.results/
 Scratch directory: /tmp/amstmp_ams_kid0.994495001/


 Communication costs MPI_COMM_WORLD:      3.594 usec per message,   0.0670 usec per 8-byte item
 Communication costs for intra-node:      5.500 usec per message,   0.0451 usec per 8-byte item

 RNG seed: 119946664 778452248 -1780940023 -2090346275 -218062922 -1147786321 -569211819 1449697281



                     *************************************************************************
                     *  ADF 2022.103  RunTime: Sep25-2023 12:48:10  ShM Nodes: 1  Procs: 10  *
                     *************************************************************************
  
       ***************************
       *  GEOMETRY OPTIMIZATION  *
       ***************************

Optimization Method                    Quasi Newton
Optimization Coordinates               Delocalized Coordinates
Optimize lattice                       F
 
 ------------------------------------------------------
 Convergence criteria (Hartree,Angstrom)
 ------------------------------------------------------
 Maximum gradient               0.001000000000
 Maximum rms gradient           0.000666666667
 Maximum step allowed           0.010000000000
 Maximum rms step allowed       0.006666666667
 Maximum energy change allowe   0.000040000000
 Maximum stress energy allowe   0.000500000000
 
Initial model Hessian                  Automatic Hessian
 
------------------------------------
Quasi-Newton Optimizer Parameters
------------------------------------
Hessian Update Method                  BFGS
Maximum number of steps                  250
First GDIIS cycle                          0
Maximum GDIIS vectors                      0
Trust radius (bohr)                        0.200000
Trust radius varies                        T
Constraints converged at all steps         T
Use projector                              T
 
 Rigid motions settings for: old optimizer
 Atomic rotations (x,y,z):     T T T
 Atomic translations (x,y,z):  T T T
 Tolerance:                   1.000000000000000E-006
 
--------
Geometry
--------
Formula: CH3
Atoms
  Index Symbol   x (angstrom)   y (angstrom)   z (angstrom)
      1      C    -1.44013564    -0.55471913     0.00548819
      2      H    -0.96626945     0.03197993    -0.75762196
      3      H    -2.13618777    -1.32513343    -0.26483623
      4      H    -1.22013179    -0.36907868     1.03904417
 
Total System Charge             0.00000
Bonding info available!
 
 
----------------
ADF Engine Input
----------------
 
 Basis
 Type TZ2P
 Core None
 End
 SpinPolarization 1
 Symmetry NOSYM
 Unrestricted Yes
 

 Title: *** (NO TITLE) ***

 Using automatic Hessian for delocalized coordinates.
 *** GO1_GOStep1 ***

 Energy gradients wrt nuclear displacements
 ==========================================

     Atom      Cartesian (a.u./angstrom)
                 X         Y         Z
 ----------------------------------------
     1 C     0.000043 -0.000081  0.000125
     2 H    -0.009038 -0.011150  0.014472
     3 H     0.013233  0.014741  0.005115
     4 H    -0.004238 -0.003510 -0.019712
 ----------------------------------------
 Mulliken charges used for AMS results%charges...
 
----------------------------------------------------------------------
Geometry Convergence after Step   1       (Hartree/Angstrom,Angstrom)
----------------------------------------------------------------------
current energy                               -0.68263173 Hartree
energy change                      -0.68263173     0.00004000    F
constrained gradient max            0.01971324     0.00100000    F
constrained gradient rms            0.01021790     0.00066667    F
gradient max                        0.01971324
gradient rms                        0.01021790
cart. step max                      0.01082021     0.01000000    F
cart. step rms                      0.00563786     0.00666667    T
 
 
--------
Geometry
--------
Formula: CH3
Atoms
  Index Symbol   x (angstrom)   y (angstrom)   z (angstrom)
      1      C    -1.44062610    -0.55428915     0.00547522
      2      H    -0.96110054     0.03801405    -0.76561046
      3      H    -2.14334861    -1.33340040    -0.26765497
      4      H    -1.21764940    -0.36727582     1.04986438
 
Total System Charge             0.00000
Bonding info available!
 
 *** GO1_GOStep2 ***

 Energy gradients wrt nuclear displacements
 ==========================================

     Atom      Cartesian (a.u./angstrom)
                 X         Y         Z
 ----------------------------------------
     1 C     0.000030 -0.000026  0.000063
     2 H    -0.002443 -0.003029  0.003907
     3 H     0.003569  0.004000  0.001367
     4 H    -0.001156 -0.000945 -0.005337
 ----------------------------------------
 Mulliken charges used for AMS results%charges...

 dE(predicted):    -0.34543E-03, dE(actual):    -0.44221E-03, Trust radius:    0.200000, all in a.u.
 
----------------------------------------------------------------------
Geometry Convergence after Step   2       (Hartree/Angstrom,Angstrom)
----------------------------------------------------------------------
current energy                               -0.68307395 Hartree
energy change                      -0.00044221     0.00004000    F
constrained gradient max            0.00533782     0.00100000    F
constrained gradient rms            0.00276480     0.00066667    F
gradient max                        0.00533782
gradient rms                        0.00276480
cart. step max                      0.00400025     0.01000000    T
cart. step rms                      0.00209158     0.00666667    T
 
 
--------
Geometry
--------
Formula: CH3
Atoms
  Index Symbol   x (angstrom)   y (angstrom)   z (angstrom)
      1      C    -1.44082368    -0.55412112     0.00545435
      2      H    -0.95916477     0.04026427    -0.76856530
      3      H    -2.14600741    -1.33647959    -0.26867952
      4      H    -1.21672879    -0.36661488     1.05386464
 
Total System Charge             0.00000
Bonding info available!
 
 *** GO1_GOStep3 ***

 Energy gradients wrt nuclear displacements
 ==========================================

     Atom      Cartesian (a.u./angstrom)
                 X         Y         Z
 ----------------------------------------
     1 C     0.000006 -0.000001  0.000026
     2 H    -0.000091 -0.000143  0.000159
     3 H     0.000142  0.000182  0.000044
     4 H    -0.000057 -0.000038 -0.000229
 ----------------------------------------
 Mulliken charges used for AMS results%charges...

 dE(predicted):    -0.34673E-04, dE(actual):    -0.38020E-04, Trust radius:    0.200000, all in a.u.
 
---------------------------------------------------------
Geometry Convergence after Step   3       ** CONVERGED **
---------------------------------------------------------
current energy                               -0.68311197 Hartree
energy change                      -0.00003802     0.00004000    T
constrained gradient max            0.00023029     0.00100000    T
constrained gradient rms            0.00011769     0.00066667    T
gradient max                        0.00023029
gradient rms                        0.00011769
cart. step max                      0.00017029     0.01000000    T
cart. step rms                      0.00009324     0.00666667    T
 
Geometry optimization converged

Optimized geometry:
 
--------
Geometry
--------
Formula: CH3
Atoms
  Index Symbol   x (angstrom)   y (angstrom)   z (angstrom)
      1      C    -1.44082368    -0.55412112     0.00545435
      2      H    -0.95916477     0.04026427    -0.76856530
      3      H    -2.14600741    -1.33647959    -0.26867952
      4      H    -1.21672879    -0.36661488     1.05386464
 
Total System Charge             0.00000
Bonding info available!
 
Performing a single point calculation on the final geometry ...

 *** adf ***



 ===========================
 A T T A C H E D   F I L E S
 ===========================
  
 Restart/tmp/amstmp_ams_kid0.994495001/GO1_GOStep3.rkf*** GO1_GOStep3 ***



 ===============================
 M O D E L   P A R A M E T E R S
 ===============================
  
 DENSITY FUNCTIONAL POTENTIAL (scf)
    LDA:                               VWN                                      
    Gradient Corrections:              ---                                      

 SPIN  (restricted / unrestr.)
    Molecule:                          UNrestricted                            == Not Default ==
    Fragments:                         Restricted                               

 OTHER ASPECTS
    Relativistic Corrections:          scalar (ZORA,MAPA)                       

    Nuclear Charge Density Model:      Point Charge Nuclei                      
    Core Treatment:                    Frozen Orbital(s)                        

    Hyperfine or Zeeman Interaction:   ---                                      



 ===============
 G E O M E T R Y  ***  3D  Molecule  ***
 ===============
  

 ATOMS
 =====                            X Y Z                    CHARGE
                                (Angstrom)             Nucl     +Core       At.Mass
                       --------------------------    ----------------       -------
    1  C              -1.4408   -0.5541    0.0055      6.00      6.00       12.0000
    2  H              -0.9592    0.0403   -0.7686      1.00      1.00        1.0078
    3  H              -2.1460   -1.3365   -0.2687      1.00      1.00        1.0078
    4  H              -1.2167   -0.3666    1.0539      1.00      1.00        1.0078


 FRAGMENTS
 =========                                     Atoms in this Fragment     Cart. coord.s (Angstrom)
                                               -------------------------------------------------------
    1  C                                                 1  C           -1.4408   -0.5541    0.0055
    2  H                                                 2  H           -0.9592    0.0403   -0.7686
    3  H                                                 3  H           -2.1460   -1.3365   -0.2687
    4  H                                                 4  H           -1.2167   -0.3666    1.0539


 Interatomic Distance Matrix (Angstrom)
 --------------------------------------

   1)     0.000
   2)     1.088   0.000
   3)     1.088   1.885   0.000
   4)     1.088   1.885   1.885   0.000

 Min. Distance =    1.0883
 Max. Distance =    1.8852



 =====================================
 S Y M M E T R Y ,   E L E C T R O N S
 =====================================
  
 Symmetry: NOSYM

 Irreducible Representations, including subspecies
 -------------------------------------------------
 A


 Configuration of Valence Electrons
 ==================================
 ( determined in the SCF procedure )

 Total:   5 (Spin-A)  + 4 (Spin-B)

 Net Charge: 0 (Nuclei minus Electrons)
 Spin polar: 1 (Spin_A minus Spin_B electrons)

 Aufbau principle for MO occupations will be applied through SCF cycle no.     150
 Thereafter, the program will assign electrons to MOs that are spatially
 similar to the occupied MOs in a "reference" cycle ("KeepOrbitals").
 The reference cycle is always the PREVIOUS cycle: it will evolve with
 the SCF procedure.
1
 ***************************************************************************************************



                                      ****************************************
                                      *  B U I L D : (Fragments, Functions)  *
                                      ****************************************
  



 =======
 S F O s  ***  (Symmetrized Fragment Orbitals)  ***
 =======
  
 SFOs are linear combinations of (valence) Fragment Orbitals (FOs), such that the SFOs transform as the
 irreducible representations of the (molecular) symmetry group. Each SFO is therefore characterized by
 an irrep of the molecule and by a few (or only one) generating FOs.
 The SFOs constitute a symmetry-adapted basis for the Fock matrix. The MO eigenvector coefficients in
 this basis provide a direct interpretation of the MOs in terms of Frontier Orbital Theory.

 The SFOs are combined with auxiliary Core Functions (CFs) to ensure orthogonalization on the (frozen)
 Core Orbitals (COs). The Core-orthogonalized SFOs (CSFOs) constitute the true Fock basis.

 The FOs, and hence also the (C)SFOs are combinations of the elementary basis functions (BAS). The basis
 functions that participate in the description of the SFOs depend on the irrep. The indices of the
 involved functions are printed below for each irrep.
 (The complete list of primitive basis functions is printed in another section)

 Total nr. of (C)SFOs (summation over all irreps) :    59

 NOTE: a (C)SFO that is defined as a combination of more than one FO is usually NOT normalized.



                                       === A ===
 Nr. of SFOs :   59
 Cartesian basis functions that participate in this irrep (total number =    66) :
      1     2     3     4     5     6     9    12     7    10
     13     8    11    14    15    16    17    18    19    20
     21    22    23    24    25    26    27    28    29    30
     31    32    33    34    35    36    37    38    39    40
     41    42    43    44    45    46    47    48    49    50
     51    52    53    54    55    56    57    58    59    60
     61    62    63    64    65    66

    SFO  (index         Fragment          Generating    Expansion in Fragment Orbitals
  indx  incl.CFs)   Occup   Orb.Energy   FragmentType  Coeff.   Orbital     on Fragment
 --------------------------------------------------------------------------------------
     1       1      2.000      -9.952 au  C             1.00      1 S               1
                        (    -270.814 eV)
     2       2      2.000      -0.502 au  C             1.00      2 S               1
                        (     -13.671 eV)
     3       3       --         0.372 au  C             1.00      3 S               1
                        (      10.122 eV)
     4       4       --         5.428 au  C             1.00      4 S               1
                        (     147.707 eV)
     5       5       --        50.139 au  C             1.00      5 S               1
                        (    1364.364 eV)
     6       6      0.667      -0.200 au  C             1.00      1 P:x             1
                        (      -5.438 eV)
     7       7       --         0.169 au  C             1.00      2 P:x             1
                        (       4.585 eV)
     8       8       --         2.007 au  C             1.00      3 P:x             1
                        (      54.615 eV)
     9       9      0.667      -0.200 au  C             1.00      1 P:y             1
                        (      -5.438 eV)
    10      10       --         0.169 au  C             1.00      2 P:y             1
                        (       4.585 eV)
    11      11       --         2.007 au  C             1.00      3 P:y             1
                        (      54.615 eV)
    12      12      0.667      -0.200 au  C             1.00      1 P:z             1
                        (      -5.438 eV)
    13      13       --         0.169 au  C             1.00      2 P:z             1
                        (       4.585 eV)
    14      14       --         2.007 au  C             1.00      3 P:z             1
                        (      54.615 eV)
    15      15       --         1.235 au  C             1.00      1 D:z2            1
                        (      33.619 eV)
    16      16       --         1.235 au  C             1.00      1 D:x2-y2         1
                        (      33.619 eV)
    17      17       --         1.235 au  C             1.00      1 D:xy            1
                        (      33.619 eV)
    18      18       --         1.235 au  C             1.00      1 D:xz            1
                        (      33.619 eV)
    19      19       --         1.235 au  C             1.00      1 D:yz            1
                        (      33.619 eV)
    20      20       --         4.010 au  C             1.00      1 F:z3            1
                        (     109.120 eV)
    21      21       --         4.010 au  C             1.00      1 F:z             1
                        (     109.120 eV)
    22      22       --         4.010 au  C             1.00      1 F:xyz           1
                        (     109.120 eV)
    23      23       --         4.010 au  C             1.00      1 F:z2x           1
                        (     109.120 eV)
    24      24       --         4.010 au  C             1.00      1 F:z2y           1
                        (     109.120 eV)
    25      25       --         4.010 au  C             1.00      1 F:x             1
                        (     109.120 eV)
    26      26       --         4.010 au  C             1.00      1 F:y             1
                        (     109.120 eV)
    27      27      1.000      -0.233 au  H             1.00      1 S               2
                        (      -6.353 eV)
    28      28       --         0.095 au  H             1.00      2 S               2
                        (       2.572 eV)
    29      29       --         1.547 au  H             1.00      3 S               2
                        (      42.104 eV)
    30      30       --         0.403 au  H             1.00      1 P:x             2
                        (      10.966 eV)
    31      31       --         0.403 au  H             1.00      1 P:y             2
                        (      10.966 eV)
    32      32       --         0.403 au  H             1.00      1 P:z             2
                        (      10.966 eV)
    33      33       --         2.568 au  H             1.00      1 D:z2            2
                        (      69.880 eV)
    34      34       --         2.568 au  H             1.00      1 D:x2-y2         2
                        (      69.880 eV)
    35      35       --         2.568 au  H             1.00      1 D:xy            2
                        (      69.880 eV)
    36      36       --         2.568 au  H             1.00      1 D:xz            2
                        (      69.880 eV)
    37      37       --         2.568 au  H             1.00      1 D:yz            2
                        (      69.880 eV)
    38      38      1.000      -0.233 au  H             1.00      1 S               3
                        (      -6.353 eV)
    39      39       --         0.095 au  H             1.00      2 S               3
                        (       2.572 eV)
    40      40       --         1.547 au  H             1.00      3 S               3
                        (      42.104 eV)
    41      41       --         0.403 au  H             1.00      1 P:x             3
                        (      10.966 eV)
    42      42       --         0.403 au  H             1.00      1 P:y             3
                        (      10.966 eV)
    43      43       --         0.403 au  H             1.00      1 P:z             3
                        (      10.966 eV)
    44      44       --         2.568 au  H             1.00      1 D:z2            3
                        (      69.880 eV)
    45      45       --         2.568 au  H             1.00      1 D:x2-y2         3
                        (      69.880 eV)
    46      46       --         2.568 au  H             1.00      1 D:xy            3
                        (      69.880 eV)
    47      47       --         2.568 au  H             1.00      1 D:xz            3
                        (      69.880 eV)
    48      48       --         2.568 au  H             1.00      1 D:yz            3
                        (      69.880 eV)
    49      49      1.000      -0.233 au  H             1.00      1 S               4
                        (      -6.353 eV)
    50      50       --         0.095 au  H             1.00      2 S               4
                        (       2.572 eV)
    51      51       --         1.547 au  H             1.00      3 S               4
                        (      42.104 eV)
    52      52       --         0.403 au  H             1.00      1 P:x             4
                        (      10.966 eV)
    53      53       --         0.403 au  H             1.00      1 P:y             4
                        (      10.966 eV)
    54      54       --         0.403 au  H             1.00      1 P:z             4
                        (      10.966 eV)
    55      55       --         2.568 au  H             1.00      1 D:z2            4
                        (      69.880 eV)
    56      56       --         2.568 au  H             1.00      1 D:x2-y2         4
                        (      69.880 eV)
    57      57       --         2.568 au  H             1.00      1 D:xy            4
                        (      69.880 eV)
    58      58       --         2.568 au  H             1.00      1 D:xz            4
                        (      69.880 eV)
    59      59       --         2.568 au  H             1.00      1 D:yz            4
                        (      69.880 eV)



 ================================
 (Slater-type)  F U N C T I O N S  ***  (Basis and Fit)  ***
 ================================
  

 Atom Type    1  (C)
 ==============

 Valence Basis Sets:  10
 -----------------------
   1 S    7.680000
   1 S    5.000000
   2 S    1.280000
   2 S    2.100000
   2 S    4.600000
   2 P    0.820000
   2 P    1.480000
   2 P    2.940000
   3 D    2.200000
   4 F    3.300000

 Atom Type    2  (H)
 ==============

 Valence Basis Sets:   5
 -----------------------
   1 S    0.690000
   1 S    0.920000
   1 S    1.580000
   2 P    1.250000
   3 D    2.500000


 BAS: List of all Elementary Cartesian Basis Functions
 =====================================================

 The numbering in the list below (to the right of the function characteristics) is referred
 to in print-outs of MO eigenvectors and Mulliken populations in the BAS representation
 (as contrasted to the SFO representation).

 Notes:
 1. The functions are characterized by a polynomial prefactor (powers of x,y,z and r) and
    an exponential decay factor alpha.
 2. Since the basis sets are specific for an atom TYPE, the individual functions occur on
    all atoms of that type.
 3. The word 'Core' in the left margin signals that it is a Core Function (CF) : not a
    degree of freedom in the valence set, but only used to ensure orthogonalization of
    the other valence basis functions on the frozen Core Orbitals.


 (power of) X  Y  Z  R     Alpha  on Atom
            ==========     =====     ==========

 C                                    1
                                  ---------------------------------------------------------------------------
            0  0  0  0     7.680      1
            0  0  0  0     5.000      2
            0  0  0  1     1.280      3
            0  0  0  1     2.100      4
            0  0  0  1     4.600      5
            1  0  0  0     0.820      6
            0  1  0  0     0.820      7
            0  0  1  0     0.820      8
            1  0  0  0     1.480      9
            0  1  0  0     1.480     10
            0  0  1  0     1.480     11
            1  0  0  0     2.940     12
            0  1  0  0     2.940     13
            0  0  1  0     2.940     14
            2  0  0  0     2.200     15
            1  1  0  0     2.200     16
            1  0  1  0     2.200     17
            0  2  0  0     2.200     18
            0  1  1  0     2.200     19
            0  0  2  0     2.200     20
            3  0  0  0     3.300     21
            2  1  0  0     3.300     22
            2  0  1  0     3.300     23
            1  2  0  0     3.300     24
            1  1  1  0     3.300     25
            1  0  2  0     3.300     26
            0  3  0  0     3.300     27
            0  2  1  0     3.300     28
            0  1  2  0     3.300     29
            0  0  3  0     3.300     30

 H                                    2    3    4
                                  ---------------------------------------------------------------------------
            0  0  0  0     0.690     31   43   55
            0  0  0  0     0.920     32   44   56
            0  0  0  0     1.580     33   45   57
            1  0  0  0     1.250     34   46   58
            0  1  0  0     1.250     35   47   59
            0  0  1  0     1.250     36   48   60
            2  0  0  0     2.500     37   49   61
            1  1  0  0     2.500     38   50   62
            1  0  1  0     2.500     39   51   63
            0  2  0  0     2.500     40   52   64
            0  1  1  0     2.500     41   53   65
            0  0  2  0     2.500     42   54   66

 Total number of charge fitting functions (nprimf)       234
 Total number of Cartesian basis functions (naos)         66
 Total number of Cartesian core functions  (ncos)          0

1
 ***************************************************************************************************



                                              ***********************
                                              *  T E C H N I C A L  *
                                              ***********************
  



 =============================================================
 P A R A L L E L I Z A T I O N  and  V E C T O R I Z A T I O N
 =============================================================
  
 Nr of parallel processes:                               10
 Maximum vector length in NumInt loops:                 128



 =====================
 S C F   U P D A T E S
 =====================
  
 Max. nr. of cycles:                               300
 Convergence criterion:                              0.0000010000
   secondary criterion:                              0.0010000000

 Mix parameter (when DIIS does not apply):           0.2000000000
 Mixed ADIIS+SDIIS will be used                  
    Max number of expansion vectors:                10
    Pure ADIIS when Max([F,P]) is above              0.1000000000
    Pure SDIIS when Max([F,P]) is below              0.0010000000
 Automatic ElectronSmearing (in case of problematic SCF convergence) disabled



 =================
 P R E C I S I O N  ***  (General: NumInt, NeglectFunctionTails, ...)  ***
 =================
  

 NumInt:           Target precision:                 4.0000000000
 -------           Initial precision:                4.0000000000
                   Min. precision (optimization):    4.0000000000

 Neglect Functions:          Basis functions:        0.1000000000E-05
 ------------------          Fit functions:          0.1000000000E-05



 ===========================
 L I N E A R   S C A L I N G
 ===========================
  

 Cut-off radii density fit:                        0.1000000000E-07
 Overlap cut-off criterion AO matrix elements:     0.1000000000E-05
 Cut-offs for Coulomb potential and fitted density:0.1000000000E-07
 Cut-off criterion for Coulomb multipole terms:    0.1000000000E-07
 Progressive Convergence parameter:                 0.000000000    

 Number of elements of the density matrix on this node (used, total):       465      2211



 ===========================================
 Numerical Integration : Fuzzy Cells (Becke)
 ===========================================
  
 Becke grid quality: NORMAL         
  
 Lebedev angular grid order:             min:  11 max:  23
 Nr. of radial points:                   min:  46 max:  52

 Total nr. of points:      24833
 Nr. of blocks:              195
 Block length:               128
 Nr. of dummy points:        127


 Test of Precision of the Numerical Integration Grid
 ===================================================

 Integral of the Total Core Density:                   0.00000000000000



 ========================
 Density Fitting (zlmFit)
 ========================
  
 ZlmFit Fit Quality: NORMAL         
  
 Max L-expansion:                        min:   6 max:   7
 Nr. of radial interpolation points:     min:  39 max:  48



 =====
 S C F  ***  ScaSCF  ***
 =====
  
 Initial density matrix is taken from previous geometry

 CYCLE    1
  ***********************************************************
  ** : orbital data taken from :/tmp/amstmp_ams_kid0.994495001/GO1_GOStep3.rkf
  ***********************************************************
 SCF Error: norm([F,P])=      0.000000021846, max([F,P])=      0.000000003652
 ***** SPIN 1 *****
 orbitals (Q,E):
 ---------------
 A :1...15           ( 1.00    -9.8089)  ( 1.00    -0.6172)  ( 1.00    -0.3799)  ( 1.00    -0.3798)
                     ( 1.00    -0.1990)  ( 0.00     0.0023)  ( 0.00     0.0614)  ( 0.00     0.0614)
                     ( 0.00     0.1449)  ( 0.00     0.1449)  ( 0.00     0.1645)  ( 0.00     0.2121)
                     ( 0.00     0.3739)  ( 0.00     0.3739)  ( 0.00     0.4663)
 ***** SPIN 2 *****
 orbitals (Q,E):
 ---------------
 A :1...14           ( 1.00    -9.7940)  ( 1.00    -0.5864)  ( 1.00    -0.3653)  ( 1.00    -0.3652)
                     ( 0.00    -0.1325)  ( 0.00     0.0110)  ( 0.00     0.0662)  ( 0.00     0.0662)
                     ( 0.00     0.1512)  ( 0.00     0.1512)  ( 0.00     0.2020)  ( 0.00     0.2308)
                     ( 0.00     0.3862)  ( 0.00     0.3862)
  
 Spin polar: 1 (Spin_A minus Spin_B electrons)

 CYCLE    2
   MIX coefficients:  0.8000  0.2000
 SCF Error: norm([F,P])=      0.000000017481, max([F,P])=      0.000000003088
 ***** SPIN 1 *****
 orbitals (Q,E):
 ---------------
 A :1...6            ( 1.00    -9.8089)  ( 1.00    -0.6172)  ( 1.00    -0.3799)  ( 1.00    -0.3798)
                     ( 1.00    -0.1990)  ( 0.00     0.0023)
 ***** SPIN 2 *****
 orbitals (Q,E):
 ---------------
 A :1...5            ( 1.00    -9.7940)  ( 1.00    -0.5864)  ( 1.00    -0.3653)  ( 1.00    -0.3652)
                     ( 0.00    -0.1325)
  
 Spin polar: 1 (Spin_A minus Spin_B electrons)

 SCF CONVERGED

 CYCLE    3
1
 ***************************************************************************************************



                                                *******************
                                                *  R E S U L T S  *
                                                *******************
  
 *** Using FIT density in Focky
   MIX coefficients:  0.8000  0.2000
 SCF Error: norm([F,P])=      0.000000009644, max([F,P])=      0.000000001762


                                   ***** SPIN 1 *****

 Scaled ZORA Orbital Energies, per Irrep and Spin:
 =================================================
                        Occup              E (au)              E (eV)       Diff (eV) with prev. cycle
                        -----      --------------------        ------       --------------------------
 A
               1        1.000     -0.98089025288910E+01      -266.914              -3.68E-07
               2        1.000     -0.61719394045287E+00       -16.795              -1.43E-07
               3        1.000     -0.37988687417358E+00       -10.337              -1.16E-07
               4        1.000     -0.37983003829070E+00       -10.336              -1.32E-07
               5        1.000     -0.19896755268071E+00        -5.414              -1.36E-07
               6        0.000      0.23151034980976E-02         0.063
               7        0.000      0.61414176875737E-01         1.671
               8        0.000      0.61419029801822E-01         1.671
               9        0.000      0.14489086612195E+00         3.943
              10        0.000      0.14493185590004E+00         3.944
              11        0.000      0.16450609311516E+00         4.476
              12        0.000      0.21214403802560E+00         5.773
              13        0.000      0.37389997976151E+00        10.174
              14        0.000      0.37392137989840E+00        10.175
              15        0.000      0.46632141349871E+00        12.689
  
 HOMO :        5 A                -0.19896755268071E+00
 LUMO :        6 A                 0.23151034980976E-02
  


                                   ***** SPIN 2 *****

 Scaled ZORA Orbital Energies, per Irrep and Spin:
 =================================================
                        Occup              E (au)              E (eV)       Diff (eV) with prev. cycle
                        -----      --------------------        ------       --------------------------
 A
               1        1.000     -0.97939797945252E+01      -266.508              -3.72E-07
               2        1.000     -0.58636445030260E+00       -15.956              -1.41E-07
               3        1.000     -0.36530098943167E+00        -9.940              -1.14E-07
               4        1.000     -0.36524435781973E+00        -9.939              -1.31E-07
               5        0.000     -0.13245037965109E+00        -3.604
               6        0.000      0.10964715376850E-01         0.298
               7        0.000      0.66178648975630E-01         1.801
               8        0.000      0.66184242614939E-01         1.801
               9        0.000      0.15120684041388E+00         4.115
              10        0.000      0.15124908829098E+00         4.116
              11        0.000      0.20204728628667E+00         5.498
              12        0.000      0.23081203444907E+00         6.281
              13        0.000      0.38617558322996E+00        10.508
              14        0.000      0.38619649888571E+00        10.509
  
 HOMO :        4 A                -0.36524435781973E+00
 LUMO :        5 A                -0.13245037965109E+00
  


 Orbital Energies, both Spins
 ========================================

 Irrep        no.  (spin)   Occup              E (au)                E (eV)
 ---------------------------------------------------------------------------
 A             1     A       1.00       -0.98089025288910E+01      -266.9138
 A             1      B      1.00       -0.97939797945252E+01      -266.5078
 A             2     A       1.00       -0.61719394045287E+00       -16.7947
 A             2      B      1.00       -0.58636445030260E+00       -15.9558
 A             3     A       1.00       -0.37988687417358E+00       -10.3372
 A             4     A       1.00       -0.37983003829070E+00       -10.3357
 A             3      B      1.00       -0.36530098943167E+00        -9.9403
 A             4      B      1.00       -0.36524435781973E+00        -9.9388
 A             5     A       1.00       -0.19896755268071E+00        -5.4142
 A             5      B      0.00       -0.13245037965109E+00        -3.6042
 A             6     A       0.00        0.23151034980976E-02         0.0630
 A             6      B      0.00        0.10964715376850E-01         0.2984
 A             7     A       0.00        0.61414176875737E-01         1.6712
 A             8     A       0.00        0.61419029801822E-01         1.6713
 A             7      B      0.00        0.66178648975630E-01         1.8008
 A             8      B      0.00        0.66184242614939E-01         1.8010
 A             9     A       0.00        0.14489086612195E+00         3.9427
 A            10     A       0.00        0.14493185590004E+00         3.9438
 A             9      B      0.00        0.15120684041388E+00         4.1145
 A            10      B      0.00        0.15124908829098E+00         4.1157
 A            11     A       0.00        0.16450609311516E+00         4.4764
 A            11      B      0.00        0.20204728628667E+00         5.4980
 A            12     A       0.00        0.21214403802560E+00         5.7727
 A            12      B      0.00        0.23081203444907E+00         6.2807
 A            13     A       0.00        0.37389997976151E+00        10.1743
 A            14     A       0.00        0.37392137989840E+00        10.1749
 A            13      B      0.00        0.38617558322996E+00        10.5084
 A            14      B      0.00        0.38619649888571E+00        10.5089
 A            15     A       0.00        0.46632141349871E+00        12.6893
 A            16     A       0.00        0.46636403039507E+00        12.6904
 A            15      B      0.00        0.48284626159232E+00        13.1389
 A            16      B      0.00        0.48288635956803E+00        13.1400
 A            17     A       0.00        0.65750326379570E+00        17.8916
 A            17      B      0.00        0.69250898179151E+00        18.8441
 A            18     A       0.00        0.75906751581135E+00        20.6553
 A            18      B      0.00        0.75980541877554E+00        20.6754
 A            19     A       0.00        0.83951482218004E+00        22.8444
 A            20     A       0.00        0.83951716092525E+00        22.8444
 A            19      B      0.00        0.84481492803385E+00        22.9886
 A            20      B      0.00        0.84481656932166E+00        22.9886
 A            21     A       0.00        0.89557429982019E+00        24.3698
 A            21      B      0.00        0.91256550616523E+00        24.8322
 A            22     A       0.00        0.11204468434063E+01        30.4889
 A            22      B      0.00        0.11563890982984E+01        31.4669
 A            23     A       0.00        0.13602341965789E+01        37.0139
 A            24     A       0.00        0.13602849855836E+01        37.0152
 A            23      B      0.00        0.13671761436141E+01        37.2028
 A            24      B      0.00        0.13672275058365E+01        37.2042
 A            25     A       0.00        0.15718653130139E+01        42.7726
 A            26     A       0.00        0.15719482673620E+01        42.7749
 A            25      B      0.00        0.16136607098852E+01        43.9099
 A            26      B      0.00        0.16137432126934E+01        43.9122
 A            27     A       0.00        0.16458029550725E+01        44.7846
 A            27      B      0.00        0.16530260096747E+01        44.9811
 A            28     A       0.00        0.18652717578322E+01        50.7566
 A            29     A       0.00        0.18653384574734E+01        50.7584
 A            28      B      0.00        0.18788185152119E+01        51.1253
 A            29      B      0.00        0.18788853349634E+01        51.1271
 A            30     A       0.00        0.21943711290471E+01        59.7119
 A            31     A       0.00        0.22496769230377E+01        61.2168
 A            32     A       0.00        0.22497956302825E+01        61.2201
 A            30      B      0.00        0.22610571739023E+01        61.5265
 A            31      B      0.00        0.22614124652599E+01        61.5362
 A            32      B      0.00        0.22615293759304E+01        61.5393
 A            33     A       0.00        0.25757167823118E+01        70.0888
 A            34     A       0.00        0.25760012683848E+01        70.0966
 A            33      B      0.00        0.25917229940467E+01        70.5244
 A            34      B      0.00        0.25920043019158E+01        70.5320
 A            35     A       0.00        0.27682332628531E+01        75.3275
 A            36     A       0.00        0.27792750499850E+01        75.6279
 A            37     A       0.00        0.27794864389694E+01        75.6337
 A            38     A       0.00        0.27825208748605E+01        75.7162
 A            35      B      0.00        0.27828432905747E+01        75.7250
 A            36      B      0.00        0.27844748766917E+01        75.7694
 A            37      B      0.00        0.27846889478915E+01        75.7752
 A            38      B      0.00        0.27881060573859E+01        75.8682
 A            39     A       0.00        0.30560571126439E+01        83.1595
 A            39      B      0.00        0.30978148076231E+01        84.2958
 A            40     A       0.00        0.32137383459966E+01        87.4503
 A            40      B      0.00        0.32191511456641E+01        87.5976
 A            41     A       0.00        0.34070790945351E+01        92.7113
 A            41      B      0.00        0.34483166657848E+01        93.8335
 A            42     A       0.00        0.38164443846919E+01       103.8507
 A            43     A       0.00        0.38167285267004E+01       103.8585
 A            42      B      0.00        0.38433723868628E+01       104.5835
 A            43      B      0.00        0.38436648037127E+01       104.5914
 A            44     A       0.00        0.39805255641973E+01       108.3156
 A            45     A       0.00        0.39808303641292E+01       108.3239
 A            44      B      0.00        0.40091421302423E+01       109.0943
 A            45      B      0.00        0.40094449444832E+01       109.1025
 A            46     A       0.00        0.43876113289445E+01       119.3930
 A            47     A       0.00        0.43877801767775E+01       119.3976
 A            46      B      0.00        0.44203135758975E+01       120.2829
 A            47      B      0.00        0.44204793801485E+01       120.2874
 A            48     A       0.00        0.47660885845648E+01       129.6919
 A            48      B      0.00        0.47749208368185E+01       129.9322
 A            49     A       0.00        0.52923010900202E+01       144.0108
 A            50     A       0.00        0.52923534417601E+01       144.0123
 A            49      B      0.00        0.53154229778862E+01       144.6400
 A            50      B      0.00        0.53154761656094E+01       144.6415
 A            51     A       0.00        0.56084193560134E+01       152.6129
 A            52     A       0.00        0.56086198723396E+01       152.6183
 A            51      B      0.00        0.56505320135551E+01       153.7588
 A            52      B      0.00        0.56507353889831E+01       153.7643
 A            53     A       0.00        0.60065368474531E+01       163.4462
 A            53      B      0.00        0.60354880800425E+01       164.2340
 A            54     A       0.00        0.60772423611272E+01       165.3702
 A            54      B      0.00        0.61300998398258E+01       166.8085
 A            55     A       0.00        0.68961052047607E+01       187.6526
 A            55      B      0.00        0.69109118483701E+01       188.0555
 A            56     A       0.00        0.73343761784069E+01       199.5785
 A            57     A       0.00        0.73344523907206E+01       199.5806
 A            56      B      0.00        0.73519261762598E+01       200.0561
 A            57      B      0.00        0.73519969963806E+01       200.0580
 A            58     A       0.00        0.74539308960408E+01       202.8318
 A            58      B      0.00        0.74900831548664E+01       203.8155
 A            59     A       0.00        0.53279663301616E+02      1449.8134
 A            59      B      0.00        0.53297507395151E+02      1450.2990
  
 Spin polar: 1 (Spin_A minus Spin_B electrons)


 All Electron Calculation, thus no Orbital Energies of the Core Orbitals are calculated


 Fit test: (difference of exact and fit density, squared integrated, result summed over spins)
         Sum-of-Fragments:                             0.00000000007764
         Orthogonalized Fragments:                     0.00000786902377
         SCF:                                          0.00002109375819



 ==========================
 Electron Density at Nuclei
 ==========================
  
 The electron density is calculated at points on a small sphere around the center of a nucleus.
 The printed electron density is the average electron density on these points.
 The radius of the sphere is the printed approximate finite nuclear radius.
 Note: ZORA-4 density is used, which includes small component density

         Atom        Nuclear Radius (Angstrom)             Electron Density (a.u.)
         ----        -------------------------             -----------------------
     1)   C                 0.0000320678                              124.44875
     2)   H                 0.0000181514                                0.46568
     3)   H                 0.0000181514                                0.46551
     4)   H                 0.0000181514                                0.46556



 =======================================
 M U L L I K E N   P O P U L A T I O N S
 =======================================
  
 The survey below gives for each atom:
 a) the total charge (Z minus electrons)
 b) the net spin polarization (nr of electrons spin-A minus spin-B)
 c) for each spin the atomic electron valence density (integrated) per L-value.

 Atom              Charge    Spin density          S         P         D         F
 ----              ------    ------------       ------    ------    ------    ------
 1 C               0.3315          1.0550   A:  1.5389    1.8159    0.0066    0.0003
                                            B:  1.4732    0.8236    0.0091    0.0010
 2 H              -0.1105         -0.0183   A:  0.4891    0.0536    0.0034    0.0000
                                            B:  0.5328    0.0298    0.0019    0.0000
 3 H              -0.1104         -0.0183   A:  0.4890    0.0536    0.0034    0.0000
                                            B:  0.5327    0.0298    0.0019    0.0000
 4 H              -0.1105         -0.0183   A:  0.4891    0.0536    0.0034    0.0000
                                            B:  0.5328    0.0298    0.0019    0.0000

 Populations of individual BAS functions
 ----------------------------------------
 1 C            0.2432  0.7463  0.1059  0.4587 -0.0151  0.1192  0.0794 -0.0598  0.4674  0.4527
                0.4015  0.1261  0.1219  0.1074 -0.0002  0.0010  0.0014  0.0003  0.0018  0.0024
               -0.0001  0.0004 -0.0001  0.0004  0.0001 -0.0002 -0.0002 -0.0000 -0.0001  0.0002
         B:     0.2408  0.7519  0.0625  0.4345 -0.0165 -0.0304 -0.0390 -0.0690  0.1657  0.2127
                0.3771  0.0453  0.0581  0.1030 -0.0038  0.0026  0.0015 -0.0014  0.0019  0.0083
               -0.0016  0.0011 -0.0012  0.0015  0.0003  0.0004 -0.0014 -0.0008  0.0005  0.0022
 2 H            0.0049  0.3446  0.1396  0.0203  0.0191  0.0142 -0.0006  0.0004  0.0007  0.0003
                0.0007  0.0018
         B:     0.0036  0.3908  0.1384  0.0064  0.0085  0.0149 -0.0011  0.0004  0.0002 -0.0002
                0.0003  0.0022
 3 H            0.0048  0.3448  0.1395  0.0215  0.0202  0.0119  0.0017  0.0005  0.0005  0.0025
                0.0006 -0.0024
         B:     0.0035  0.3910  0.1382  0.0074  0.0094  0.0131  0.0006  0.0005  0.0005  0.0016
                0.0005 -0.0019
 4 H            0.0048  0.3448  0.1395  0.0195  0.0177  0.0164 -0.0022  0.0001  0.0012 -0.0024
                0.0012  0.0055
         B:     0.0035  0.3910  0.1383  0.0058  0.0074  0.0166 -0.0024  0.0001  0.0004 -0.0025
                0.0006  0.0057

 Gross Charges per Atom (Z minus electrons)
 ==========================================
             0.3315   -0.1105   -0.1104   -0.1105
 Net Total:  0.00000000


 Atom-Atom Population Matrix (off-diagonal elements not doubled)
 ===============================================================


                                   ***** SPIN 1 *****

     1 :     2.6849
     2 :     0.2256    0.3904
     3 :     0.2256   -0.0350    0.3903
     4 :     0.2256   -0.0349   -0.0349    0.3903

                                   ***** SPIN 2 *****

     1 :     1.7166
     2 :     0.1967    0.4410
     3 :     0.1967   -0.0367    0.4410
     4 :     0.1967   -0.0366   -0.0366    0.4410



 =================================================
 H I R S H F E L D   C H A R G E   A N A L Y S I S
 =================================================
  
 For each fragment: the (numerical) integral of rho(scf) * rho(fragment)/rho(sum-of-fragments)
 (nuclear charges are included, electrons are counted negative)

 The fragments and their ordering are defined in the early G E O M E T R Y output section.
 If you use single-atom fragments, this usually implies that all atoms of the same
 chemical type are grouped together. This may not be the order in which you listed them
 in the input file!

    1  C                        -0.1322
    2  H                         0.0441
    3  H                         0.0441
    4  H                         0.0441

 Sum of these charges (accuracy NumInt/Tails) =           0.00000563



 =============================
 V O R O N O I   C H A R G E S
 =============================
  
 For each atom: the (numerical) integral of the total electronic charge density in its Voronoi cell,
 i.e. the region of space that is closer to that atom than to any other atom.
 (cf. Wigner-Seitz cells in crystals)

 Within the Voronoi cell the subintegrals over the atomic sphere and the remaining part are evaluated
 separately to give the numbers of electrons (negative charge) in these regions.
 The net total charge in the cell (including the nuclear charge) is also given.

 Values are provided for
    a) the Initial (sum-of-fragments) density
    b) the Orthogonalized-Fragments density
    c) the SCF density
    d) the Voronoi Deformation Density (VDD): the difference SCF-Initial for the complete atomic cell


  Atom                Initial                    OrthFrag                   SCF
             Sphere RestCell NetTotal   Sphere RestCell NetTotal   Sphere RestCell NetTotal      VDD
 -----       ------------------------   ------------------------   ------------------------    -----
    1 C      -2.262   -2.268    1.470   -2.395   -2.501    1.104   -2.299   -2.286    1.415   -0.055
    2 H      -0.071   -1.418   -0.489   -0.089   -1.279   -0.368   -0.103   -1.369   -0.472    0.017
    3 H      -0.071   -1.421   -0.492   -0.089   -1.280   -0.369   -0.103   -1.370   -0.473    0.019
    4 H      -0.071   -1.418   -0.489   -0.089   -1.278   -0.367   -0.103   -1.367   -0.470    0.019
 ---------------------------------------------------------------------------------------------------
 Total NetCharge:               0.000                      0.000                      0.000    0.000
 (accuracy NumInt/Tails)

 Remark: the 'NetTotal' Voronoi charges often do not match the Mulliken and/or Hirshfeld charges very
 well. This is caused by the fact that chemically different atoms are not treated in accordance with
 their relative sizes. (Voronoi cells are defined by boundary planes halfway between the atoms.)
 However, the CHANGES in charge, comparing 'Initial' to 'SCF' for instance, do give a fair indication
 of the flow of charge caused by the relaxation from sum-of-fragments to self-consistency.

 Warning: the absolute accuracy of the VDD charges obtained using the Fuzzy Cells (Becke) integration
 scheme is much poorer than the one obtained with an 'equivalent' Voronoi integration grid. 



 =================================================================
 M U L T I P O L E   D E R I V E D   C H A R G E   A N A L Y S I S
 =================================================================

 This charge analysis uses the atomic multipoles (obtained from the fitted density) up to some level X,
 and reconstructs these multipoles exactly (up to level X) by distributing charges over all atoms.
 This is achieved by using Lagrange multipliers and a weight function to keep the multipoles local.

 Dummy atoms can be included (by setting INCDUM in MDC-block to 1) to obtain a fractional charge.
 This is generally useful and necessary only for small symmetrical molecules, when there are not
 enough degrees of freedom to reconstruct the multipoles.

 Since the atomic multipoles are reconstructed up to level X,
 the molecular multipoles are represented also up to level X.
 The recommended level is to reconstruct up to quadrupole : -> MDC-q charges.

 See: M. Swart, P.Th. van Duijnen, J.G. Snijders, J.Comput.Chem., (2001), p. 79-88.

 ------------------------------------------------------------------------ 
 Atomic electronic multipole moments from SCF equations (a.u.) for spin A
 ------------------------------------------------------------------------ 

   atom        charge        dip-x     dip-y     dip-z      quad-xx   quad-xy   quad-xz   quad-yy   quad-yz   quad-zz
 --------------------------------------------------------------------------------------------------------------------
    1 C     -0.350113     0.000304 -0.000187 -0.000028    -0.432349  0.626193  0.039421 -0.196443 -0.034902  0.628792
    2 H     -0.049986     0.012779  0.015772 -0.020523    -0.074086  0.100332 -0.034081 -0.028655 -0.051480  0.102741
    3 H     -0.049935    -0.018689 -0.020711 -0.007257    -0.032933  0.127824  0.024458  0.011494  0.018249  0.021438
    4 H     -0.049966     0.005932  0.004986  0.027814    -0.102268  0.075091  0.028731 -0.077985  0.016377  0.180253

 ------------------------------------------------------------------------ 
 Atomic electronic multipole moments from SCF equations (a.u.) for spin B
 ------------------------------------------------------------------------ 

   atom        charge        dip-x     dip-y     dip-z      quad-xx   quad-xy   quad-xz   quad-yy   quad-yz   quad-zz
 --------------------------------------------------------------------------------------------------------------------
    1 C      0.508854    -0.000052  0.000118 -0.000025     0.082921 -0.120078 -0.007624  0.037735  0.006612 -0.120655
    2 H     -0.002969    -0.001797 -0.002252  0.002920    -0.010873  0.009476 -0.035528 -0.000397 -0.041585  0.011269
    3 H     -0.002924     0.002697  0.002983  0.001042     0.025966  0.034072  0.016826  0.035478  0.020776 -0.061444
    4 H     -0.002961    -0.000838 -0.000709 -0.003943    -0.036062 -0.013088  0.020629 -0.044517  0.019107  0.080579

 ----------------------------------------------------- 
 MDC atomic charges (includes spinA + spinB electrons)
 ----------------------------------------------------- 

 The MDC-m charges are just the Monopole terms in the multipole expansion, while for the MDC-d charges
 also the Dipoles are reconstructed. The usually preferred charges are the MDC-q charges.
 These reconstruct the Monopoles, Dipoles and Quadrupoles (both atomic AND molecular).

 Given here are the atomic charges of both spins added. These should be compared
 to the values from a "normal" RESTRICTED calculation.

        Atom    Level:     MDC-m        MDC-d        MDC-q
 ---------------------------------------------------------
     1     C            0.158741    -0.391732    -0.078908
     2     H           -0.052955     0.130604     0.041644
     3     H           -0.052859     0.130573    -0.012094
     4     H           -0.052927     0.130554     0.049358

 -------------------------------- 
 MDC spin density (spinA - spinB)
 -------------------------------- 
 Reported here are the the number of Alpha-electrons minus the number of Beta-electrons
 per atom, which usually are regarded as spin densities.

        Atom    Level:     MDC-m        MDC-d        MDC-q
 ---------------------------------------------------------
     1     C            0.858967     1.783059     1.340247
     2     H            0.047017    -0.261041    -0.114727
     3     H            0.047011    -0.261037    -0.062570
     4     H            0.047005    -0.260981    -0.162950

 --------------------------------------------- 
 Represented total molecular multipole moments
 --------------------------------------------- 

 Given here are the Molecular multipole moments from the atomic charges, and from the Fit Density.
 Note that the atomic charges represent the latter, NOT the ones from the Exact density.

 Reported here are the Molecular multipole moments of both spins added.
 They should be compared to the values from a "normal" RESTRICTED calculation.

            Q (a.u.)             Dipole moment (Debye)                                          Quadrupole moment (a.u.)
                                 x         y         z              xx        xy        xz        yy        yz        zz
------------------------------------------------------------------------------------------------------------------------
MDC-m         0.0000       -0.0004   -0.0002   -0.0000          0.1157   -0.2487   -0.0155    0.0519    0.0141   -0.1677
MDC-d         0.0000        0.0004   -0.0002   -0.0000         -0.2842    0.6157    0.0388   -0.1280   -0.0343    0.4122
MDC-q         0.0000        0.1904    0.2088    0.1097         -0.4565   -0.4139   -0.2086   -0.0869   -0.1310    0.5434
 
Fit.Dens.     0.0000        0.0004   -0.0002   -0.0000         -0.5180    0.7039    0.0443   -0.2343   -0.0391    0.7524



 ==========
 S**2 value  ***  see also R. Bulo et al., J.Am.Chem.Soc., 124 (2002) 13903-13910, note (29)  ***
 ==========
  
                                       exact      expectation value

 Total S2 (S squared)                  0.75000             0.75239



 =============
 Dipole Moment  ***  (Debye)  ***
 =============
  
 Vector   :         0.00021125     -0.00038432      0.00022353
 Magnitude:         0.00049224

 This molecular dipole moment is calculated with analytic integration



 =========================================
 Quadrupole Moment (Buckingham convention)  ***  (a.u.)  ***
 =========================================
  
      quad-xx        quad-xy        quad-xz        quad-yy        quad-yz        quad-zz
     -0.51861985     1.12637010     0.07054495    -0.23483063    -0.06278763     0.75345048

 This molecular quadrupole moment is calculated with analytic integration
1



 ===========================
 B O N D I N G   E N E R G Y  ***  (decomposition)  ***
 ===========================
  
*** IMPORTANT NOTE ***

The bond energy is computed as an energy difference between molecule and
fragments. In particular when the fragments are single atoms, they are usually
computed as SPHERICALLY SYMMETRIC and SPIN-RESTRICTED. Obviously, this usually
does NOT represent the true atomic groundstate.

To obtain the 'real' bond energy, (atomic) correction terms must be applied
for the true (multiplet) fragment ground state. See ref: E.J.Baerends,
V.Branchadell, M.Sodupe, Chem.Phys.Lett.265 (1997) 481

General theoretical background on the bond energy decomposition scheme used
here (Morokuma-Ziegler) can be found in the review paper:
F.M. Bickelhaupt and E.J. Baerends,
"Kohn-Sham Density Functional Theory: Predicting and Understanding Chemistry"
In: Rev. Comput. Chem.; Lipkowitz, K. B. and Boyd, D. B., Eds.;
Wiley-VCH: New York, 2000, Vol. 15, 1-86.

Symbols used in the Bickelhaupt-Baerends (BB) paper are given below to make
the direct connection to that paper, where detailed explanations can be found
on the meaning of the various terms.


                                                   hartree              eV         kcal/mol           kJ/mol
                                      --------------------     -----------       ----------      -----------

Pauli Repulsion
  Kinetic (Delta T^0):                   4.021232925680451        109.4233          2523.36         10557.75
  Delta V^Pauli Coulomb:                -1.693628252798570        -46.0860         -1062.77         -4446.62
  Delta V^Pauli LDA-XC:                 -0.541916301967277        -14.7463          -340.06         -1422.80
                                      --------------------     -----------       ----------      -----------
  Total Pauli Repulsion:                 1.785688370914603         48.5911          1120.54          4688.32
 (Total Pauli Repulsion =
  Delta E^Pauli in BB paper)

Steric Interaction
  Pauli Repulsion (Delta E^Pauli):       1.785688370914603         48.5911          1120.54          4688.32
  Electrostatic Interaction:            -0.253235320600973         -6.8909          -158.91          -664.87
 (Electrostatic Interaction =
  Delta V_elstat in the BB paper)
                                      --------------------     -----------       ----------      -----------
  Total Steric Interaction:              1.532453050313631         41.7002           961.63          4023.45
 (Total Steric Interaction =
  Delta E^0 in the BB paper)

Orbital Interactions
  A:                                    -2.215547210076450        -60.2881         -1390.28         -5816.92
                                      --------------------     -----------       ----------      -----------
  Total Orbital Interactions:           -2.215547210076450        -60.2881         -1390.28         -5816.92

Alternative Decomposition Orb.Int.
  Kinetic:                              -3.362538387623150        -91.4993         -2110.02         -8828.34
  Coulomb:                               1.213484012584755         33.0206           761.47          3186.00
  XC:                                   -0.066492835038056         -1.8094           -41.72          -174.58
                                      --------------------     -----------       ----------      -----------
  Total Orbital Interactions:           -2.215547210076450        -60.2881         -1390.28         -5816.92

  Residu (E=Steric+OrbInt+Res):         -0.000017806703523         -0.0005            -0.01            -0.05

Total Bonding Energy:                   -0.683111966466342        -18.5884          -428.66         -1793.51


Summary of Bonding Energy (energy terms are taken from the energy decomposition above)
======================================================================================

  Electrostatic Energy:                 -0.253235320600973         -6.8909          -158.91          -664.87
  Kinetic Energy:                        0.658694538057301         17.9240           413.34          1729.40
  Coulomb (Steric+OrbInt) Energy:       -0.480162046917337        -13.0659          -301.31         -1260.67
  XC Energy:                            -0.608409137005333        -16.5557          -381.78         -1597.38
                                      --------------------     -----------       ----------      -----------
  Total Bonding Energy:                 -0.683111966466342        -18.5884          -428.66         -1793.51


Correction terms (incorporated in energies above; only for test purposes):

1. Indication of fit-quality: 1st-order fit-correction used in the energy (hartree):   0.0001472231
2. Electrostatic (Fit correction):   0.0000000000

Scaled ZORA energy correction, not included in bonding energy (hartree):            0.0000009944
 NOTE: This scaled ZORA energy correction should only be used to compare two calculations
 in which the only difference in the calculation is the electron configuration.
 Then the difference in energy of this term should be added to the difference in energy of
 the two electron configurations.
 This term should not be used otherwise.
 In practice it is useful only for core excitation energy calculations.



 =========================================
 F R A G M E N T   E N E R G Y   T E R M S  ***  (summed over all fragments)  ***
 =========================================
  

The energy terms below are (parts of) the Total Energy of the fragments from which the molecule
 is built.

Exchange and Correlation
  Exchange LDA:                         -4.937153948086123       -134.3468         -3098.11        -12962.50
  Exchange GGA:                          0.000000000000000          0.0000             0.00             0.00
  Correlation LDA:                      -0.490984083781615        -13.3604          -308.10         -1289.08
  Correlation GGA:                       0.000000000000000          0.0000             0.00             0.00
                                      --------------------     -----------       ----------      -----------
  Total XC:                             -5.428138031867737       -147.7072         -3406.21        -14251.57
1



 =======================================================
 S F O   P O P U L A T I O N S ,   M O   A N A L Y S I S
 =======================================================
  
 A Mulliken population analysis is performed on (input-)selected MOs. All populations refer to SFOs.
 BAS populations may have been printed directly after the SCF part.



                                   ***** SPIN 1 *****



                                       === A ===


 SFO contributions (%) per orbital
 (multiplication by the orbital occupation yields the SFO Gross Populations)

 Orb.:        1      2      3      4      5      6      7      8      9
 occup:     1.00   1.00   1.00   1.00   1.00   0.00   0.00   0.00   0.00
 CF+SFO     ----   ----   ----   ----   ----   ----   ----   ----   ----
 ------
      1:   99.84   0.01  -0.00  -0.00  -0.00  -0.01  -0.00  -0.00  -0.00
      2:   -0.00  54.62   0.00   0.00   0.00   4.73  -0.00   0.00   0.00
      3:    0.00  -0.57  -0.00  -0.00  -0.00 -17.27  -0.00  -0.00  -0.00
      6:    0.00   0.00  15.44   4.57  51.59   0.00   2.01   0.07   2.47
      7:   -0.00   0.00  -0.12  -0.03   0.02   0.00 -17.68  -0.62   3.50
      9:    0.00   0.00  21.53   4.16  40.16   0.00   2.64   0.03   1.92
     10:    0.00  -0.00  -0.16  -0.03   0.01  -0.00 -23.25  -0.24   2.72
     12:   -0.00  -0.00   8.64  36.90   0.16   0.00   0.09   4.65  39.38
     13:    0.00  -0.00  -0.07  -0.28   0.00  -0.00  -0.79 -40.86  55.86
     14:    0.00   0.00  -0.09  -0.36   0.00  -0.00   0.02   0.89  -1.40
     27:    0.02  14.24  30.17   3.81   0.00  15.04  30.77  18.07   4.27
     28:   -0.00  -0.66   1.33   0.17   0.00  22.34  23.32  13.68  -4.23
     29:    0.00  -0.27   0.08   0.01  -0.00  -0.91   2.15   1.26  -1.36
     30:    0.00   0.38  -0.16   0.39   1.42   0.18   0.11   0.14   0.49
     31:    0.01   0.57  -0.23   0.45   1.11   0.28   0.18   0.21   0.46
     32:    0.01   0.97   0.28   0.15   0.00   0.47   0.52   0.14   2.27
     38:    0.02  14.24  19.69  14.29   0.00  15.04  41.66   7.18   6.08
     39:   -0.00  -0.66   0.87   0.63   0.00  22.34  31.56   5.43  -6.03
     40:    0.00  -0.27   0.05   0.04   0.00  -0.91   2.91   0.50  -1.93
     41:    0.01   0.81  -0.15   0.06   1.42   0.39   0.45   0.09  -0.24
     42:    0.01   0.99  -0.22   0.14   1.11   0.48   0.54   0.12  -0.29
     43:    0.00   0.12   0.70   0.36   0.00   0.06   0.11  -0.00   3.25
     49:    0.02  14.25   1.12  32.86   0.00  15.04   0.82  48.02  20.49
     50:   -0.00  -0.65   0.05   1.45   0.00  22.34   0.62  36.36 -20.33
     51:    0.00  -0.27   0.00   0.09   0.00  -0.91   0.06   3.36  -6.52
     52:    0.00   0.08   0.49  -0.05   1.42   0.04   0.00   0.06  -0.03
     53:    0.00   0.06   0.65  -0.04   1.11   0.03   0.01   0.04  -0.01
     54:    0.02   1.78  -0.03  -0.15   0.00   0.87   0.04   1.16  -1.21


 Summation over all MOs, multiplied by occupation: Total SFO Gross Populations in this Irrep
 ===========================================================================================

     1.00    0.55   -0.01   -0.00   -0.00    0.72   -0.00   -0.00    0.66   -0.00   -0.00    0.46
    -0.00   -0.00    0.00    0.00    0.00    0.00    0.00    0.00    0.00    0.00    0.00    0.00
     0.00    0.00    0.48    0.01   -0.00    0.02    0.02    0.01    0.00    0.00    0.00    0.00
     0.00    0.48    0.01   -0.00    0.02    0.02    0.01    0.00    0.00    0.00    0.00    0.00
     0.48    0.01   -0.00    0.02    0.02    0.02    0.00    0.00    0.00    0.00    0.00



                                   ***** SPIN 2 *****



                                       === A ===


 SFO contributions (%) per orbital
 (multiplication by the orbital occupation yields the SFO Gross Populations)

 Orb.:        1      2      3      4      5      6      7      8
 occup:     1.00   1.00   1.00   1.00   0.00   0.00   0.00   0.00
 CF+SFO     ----   ----   ----   ----   ----   ----   ----   ----
 ------
      1:  100.05   0.00  -0.00  -0.00   0.00  -0.01  -0.00  -0.00
      2:    0.00  48.05   0.00   0.00   0.00   5.98  -0.00   0.00
      3:   -0.00  -0.78  -0.00   0.00  -0.00 -18.32  -0.00  -0.00
      6:    0.00   0.00  14.26   4.28  49.80   0.00   2.37   0.11
      7:   -0.00   0.00  -0.20  -0.06   0.56   0.00 -18.39  -0.83
      9:   -0.00   0.00  19.88   3.91  38.77   0.00   3.13   0.05
     10:    0.00  -0.00  -0.27  -0.05   0.43  -0.00 -24.28  -0.38
     12:   -0.00  -0.00   8.11  34.08   0.15   0.00   0.15   5.50
     13:    0.00  -0.00  -0.11  -0.47   0.00  -0.00  -1.14 -42.58
     27:   -0.01  16.32  32.36   4.00   0.00  14.11  30.47  16.21
     28:   -0.00  -0.68   1.28   0.16   0.00  23.21  25.96  13.81
     29:   -0.00  -0.23   0.08   0.01   0.00  -0.94   2.31   1.23
     30:   -0.00   0.40  -0.16   0.41   1.83   0.19   0.13   0.13
     31:   -0.00   0.61  -0.23   0.47   1.42   0.29   0.21   0.19
     32:   -0.00   1.03   0.23   0.23   0.01   0.49   0.52   0.16
     38:   -0.01  16.31  20.96  15.41   0.00  14.11  39.02   7.66
     39:   -0.00  -0.68   0.83   0.61   0.00  23.22  33.24   6.52
     40:   -0.00  -0.23   0.05   0.04   0.00  -0.94   2.96   0.58
     41:   -0.00   0.85  -0.16   0.04   1.83   0.41   0.45   0.10
     42:   -0.00   1.05  -0.23   0.11   1.42   0.50   0.55   0.13
     49:   -0.01  16.32   1.23  35.13   0.00  14.11   0.53  46.15
     50:   -0.00  -0.68   0.05   1.39   0.00  23.22   0.45  39.29
     51:   -0.00  -0.23   0.00   0.09   0.00  -0.94   0.04   3.50
     52:   -0.00   0.09   0.54  -0.04   1.83   0.04   0.00   0.06
     53:   -0.00   0.06   0.71  -0.03   1.42   0.03   0.01   0.04
     54:   -0.00   1.89  -0.02  -0.20   0.01   0.90   0.02   1.20


 Summation over all MOs, multiplied by occupation: Total SFO Gross Populations in this Irrep
 ===========================================================================================

     1.00    0.48   -0.01   -0.00   -0.00    0.19   -0.00   -0.00    0.24   -0.00   -0.00    0.42
    -0.01   -0.00    0.00    0.00    0.00    0.00    0.00    0.00    0.00    0.00    0.00    0.00
     0.00    0.00    0.53    0.01   -0.00    0.01    0.01    0.01    0.00    0.00    0.00    0.00
     0.00    0.53    0.01   -0.00    0.01    0.01    0.01    0.00    0.00    0.00    0.00    0.00
     0.53    0.01   -0.00    0.01    0.01    0.02    0.00    0.00    0.00    0.00    0.00



 List of all MOs, ordered by energy, with the most significant SFO gross populations
 ===================================================================================

 Each percentage contribution in the table below corres ponds to the indicated SFO.
 In general, a SFO may be a linear combination of several Fragment Orbitals on the same,
 or on symmetry-related Fragments. Only the first 'member' of such a combination is
 specified here. A full definition of all SFOs is given in an earlier part of the output.
 The numbering of the SFOs in this table does NOT include the Core Orbitals, and starts
 from one for each symmetry representation, as in the SFO definition list earlier.


                                       *** SPIN 1 ***


       E(eV)  Occ       MO           %     SFO (first member)   E(eV)  Occ   Fragment
 -------------------------------------------------------------------------------------

     -16.795  1.00     2 A         54.62%     2 S             -13.671  2.00     1 C
                                   14.25%     1 S              -6.353  1.00     4 H
                                   14.24%     1 S              -6.353  1.00     2 H
                                   14.24%     1 S              -6.353  1.00     3 H
                                    1.78%     1 P:z            10.966  0.00     4 H
     -10.337  1.00     3 A         30.17%     1 S              -6.353  1.00     2 H
                                   21.53%     1 P:y            -5.438  0.67     1 C
                                   19.69%     1 S              -6.353  1.00     3 H
                                   15.44%     1 P:x            -5.438  0.67     1 C
                                    8.64%     1 P:z            -5.438  0.67     1 C
                                    1.33%     2 S               2.572  0.00     2 H
                                    1.12%     1 S              -6.353  1.00     4 H
     -10.336  1.00     4 A         36.90%     1 P:z            -5.438  0.67     1 C
                                   32.86%     1 S              -6.353  1.00     4 H
                                   14.29%     1 S              -6.353  1.00     3 H
                                    4.57%     1 P:x            -5.438  0.67     1 C
                                    4.16%     1 P:y            -5.438  0.67     1 C
                                    3.81%     1 S              -6.353  1.00     2 H
                                    1.45%     2 S               2.572  0.00     4 H
      -5.414  1.00     5 A         51.59%     1 P:x            -5.438  0.67     1 C
                                   40.16%     1 P:y            -5.438  0.67     1 C
                                    1.42%     1 P:x            10.966  0.00     3 H
                                    1.42%     1 P:x            10.966  0.00     2 H
                                    1.42%     1 P:x            10.966  0.00     4 H
                                    1.11%     1 P:y            10.966  0.00     2 H
                                    1.11%     1 P:y            10.966  0.00     4 H
                                    1.11%     1 P:y            10.966  0.00     3 H
       0.063  0.00     6 A         22.34%     2 S               2.572  0.00     4 H
                                   22.34%     2 S               2.572  0.00     3 H
                                   22.34%     2 S               2.572  0.00     2 H
                                  -17.27%     3 S              10.122  0.00     1 C
                                   15.04%     1 S              -6.353  1.00     3 H
                                   15.04%     1 S              -6.353  1.00     4 H
                                   15.04%     1 S              -6.353  1.00     2 H
                                    4.73%     2 S             -13.671  2.00     1 C
       1.671  0.00     7 A         41.66%     1 S              -6.353  1.00     3 H
                                   31.56%     2 S               2.572  0.00     3 H
                                   30.77%     1 S              -6.353  1.00     2 H
                                   23.32%     2 S               2.572  0.00     2 H
                                  -23.25%     2 P:y             4.585  0.00     1 C
                                  -17.68%     2 P:x             4.585  0.00     1 C
                                    2.91%     3 S              42.104  0.00     3 H
                                    2.64%     1 P:y            -5.438  0.67     1 C
                                    2.15%     3 S              42.104  0.00     2 H
                                    2.01%     1 P:x            -5.438  0.67     1 C
       1.671  0.00     8 A         48.02%     1 S              -6.353  1.00     4 H
                                  -40.86%     2 P:z             4.585  0.00     1 C
                                   36.36%     2 S               2.572  0.00     4 H
                                   18.07%     1 S              -6.353  1.00     2 H
                                   13.68%     2 S               2.572  0.00     2 H
                                    7.18%     1 S              -6.353  1.00     3 H
                                    5.43%     2 S               2.572  0.00     3 H
                                    4.65%     1 P:z            -5.438  0.67     1 C
                                    3.36%     3 S              42.104  0.00     4 H
                                    1.26%     3 S              42.104  0.00     2 H
                                    1.16%     1 P:z            10.966  0.00     4 H
       3.943  0.00     9 A         55.86%     2 P:z             4.585  0.00     1 C
                                   39.38%     1 P:z            -5.438  0.67     1 C
                                   20.49%     1 S              -6.353  1.00     4 H
                                  -20.33%     2 S               2.572  0.00     4 H
                                   -6.52%     3 S              42.104  0.00     4 H
                                    6.08%     1 S              -6.353  1.00     3 H
                                   -6.03%     2 S               2.572  0.00     3 H
                                    4.27%     1 S              -6.353  1.00     2 H
[...]
                                   -6.40%     3 S              42.104  0.00     4 H
                                   -6.25%     2 S               2.572  0.00     3 H
                                    6.13%     1 S              -6.353  1.00     3 H
                                   -3.83%     2 S               2.572  0.00     2 H
                                    3.78%     2 P:x             4.585  0.00     1 C
                                    3.75%     1 S              -6.353  1.00     2 H
                                    3.45%     1 P:z            10.966  0.00     3 H
                                    3.03%     2 P:y             4.585  0.00     1 C
                                    2.80%     1 P:x            -5.438  0.67     1 C
                                    2.42%     1 P:z            10.966  0.00     2 H
                                    2.25%     1 P:y            -5.438  0.67     1 C
                                   -2.02%     3 S              42.104  0.00     3 H
                                   -1.35%     3 P:z            54.615  0.00     1 C
                                   -1.23%     3 S              42.104  0.00     2 H
                                   -1.16%     1 P:z            10.966  0.00     4 H
       4.116  0.00    10 A         31.17%     2 P:y             4.585  0.00     1 C
                                   23.12%     1 P:y            -5.438  0.67     1 C
                                   22.86%     2 P:x             4.585  0.00     1 C
                                   16.96%     1 P:x            -5.438  0.67     1 C
                                  -16.14%     2 S               2.572  0.00     2 H
                                   15.81%     1 S              -6.353  1.00     2 H
                                  -13.71%     2 S               2.572  0.00     3 H
                                   13.44%     1 S              -6.353  1.00     3 H
                                    6.70%     2 P:z             4.585  0.00     1 C
                                   -5.21%     3 S              42.104  0.00     2 H
                                    4.97%     1 P:z            -5.438  0.67     1 C
                                   -4.42%     3 S              42.104  0.00     3 H
                                    2.57%     1 P:y            10.966  0.00     4 H
                                    1.90%     1 P:x            10.966  0.00     4 H
                                    1.04%     1 P:z            10.966  0.00     3 H
       5.498  0.00    11 A         59.20%     2 P:x             4.585  0.00     1 C
                                   46.08%     2 P:y             4.585  0.00     1 C
                                   -1.01%     1 P:x            10.966  0.00     3 H
                                   -1.01%     1 P:x            10.966  0.00     4 H
                                   -1.01%     1 P:x            10.966  0.00     2 H

 Energy gradients wrt nuclear displacements
 ==========================================

     Atom      Cartesian (a.u./angstrom)
                 X         Y         Z
 ----------------------------------------
     1 C     0.000006 -0.000001  0.000026
     2 H    -0.000091 -0.000143  0.000159
     3 H     0.000142  0.000182  0.000044
     4 H    -0.000057 -0.000038 -0.000229
 ----------------------------------------



 =======================================================================
 Electrostatic potential at the Nuclei due to electrons and other nuclei
 =======================================================================
  
         Atom                  Potential
         ----                  ---------
     1)   C                  14.70555314
     2)   H                   1.07520914
     3)   H                   1.07521061
     4)   H                   1.07523969

=============================================================
=== CALCULATE ANALYTICAL SECOND DERIVATIVES OF THE ENERGY ===
=============================================================


-----------------------------------------------
*** RESTART ***
*** CHECKING FOR HESSIAN ON RESTART FILE ***
@@@ WARNING: Cannot find section: Hessian                                                                                                                                                         
*** NO HESSIAN EXISTS ON RESTART FILE ***
*** HESSIAN FROM RESTART FILE IS NOT COMPLETE ***
*** FURTHER CALCULATIONS WILL BE DONE         ***
-----------------------------------------------
                  ------------------------------------------------
                  
                  This Analytical Second Derivatives Progam    
                            was written for ADF by             
                  
                                Stephen K. Wolff               
                  
                         Scientific Computing & Modelling      
                  
                                Vrije University
                              Theoretical Chemistry
                                De Boelelaan 1083
                                1081 HV Amsterdam
                                 The Netherlands
                  
                  ------------------------------------------------
                  
                                    References:                
                                    ===========                
                  
                   Attila Berces, Ross M. Dickson, Liangyou Fan
                   Heiko Jacobsen, David Swerhone, Tom Ziegler,
                   Computer Physics Communications 100 (1997) 247.
                  
                   Heiko Jacobsen, Attila Berces
                   David Swerhone, Tom Ziegler,
                   Computer Physics Communications 100 (1997) 263.
                  
                   Stephen K. Wolff
                   Int. J. Quantum Chem. 104 (2005) 645.
                  
                  ------------------------------------------------
                  
              <><><><><><><><><><><><><><><><><><><><><><><><><>
 
                 SECOND DERIVATIVES INFORMATION:
                 -------------------------------
 
                 === PRINT
 
                   EIGS,  lprint_eigbas =  F
                   U1,    lprint_u1     =  F
                   PARTS, lprint_parts  =  F
 
                 === DEBUG
 
                   ALL        =  F
                   B1         =  F
                   DENSITIES  =  F
                   FIT        =  F
                   HESSIAN    =  F
                   NUMBERS    =  F
                   SYMMETRY   =  F
                   U1         =  F
 
                 === CPKS
 
                   MAX_CPKS_ITERATIONS    =    20
                   U1_ACCURACY PARAMETER  =     5.00
                   U1 ACCURACY            =     0.0000100
 

                 Estimated peak private memory usage    100 MB per process
                                 shared memory usage     41 MB per node

              <><><><><><><><><><><><><><><><><><><><><><><><><>

######## LOOPING OVER NUCLEI ########

==========================
###### NUCLEUS:     1  C  
==========================

====================  solving CPKS equations  ====================

NUCLEUS  COORD.    ITERATION   ACCURACY
-------  ------    ---------   --------
    1       1          1       0.26644743D-01
    1       1          2       0.70265278D-02
    1       1          3       0.11968596D-02
    1       1          4       0.14041723D-03
    1       1          5       0.12790782D-04
    1       1          6       0.21224832D-05
*** CPKS converged.
----------------------------------------------
    1       2          1       0.22781685D-01
    1       2          2       0.64019098D-02
    1       2          3       0.11956777D-02
    1       2          4       0.12753078D-03
    1       2          5       0.23055295D-04
    1       2          6       0.69766010D-05
*** CPKS converged.
----------------------------------------------
    1       3          1       0.30933069D-01
    1       3          2       0.14353219D-02
    1       3          3       0.15312572D-03
    1       3          4       0.35519676D-04
    1       3          5       0.11244752D-04
    1       3          6       0.35700026D-05
*** CPKS converged.
----------------------------------------------

====================  end of solving CPKS equations  ====================

==========================
###### NUCLEUS:     2  H  
==========================

====================  solving CPKS equations  ====================

NUCLEUS  COORD.    ITERATION   ACCURACY
-------  ------    ---------   --------
    2       1          1       0.11669173D-01
    2       1          2       0.27402012D-02
    2       1          3       0.11465603D-02
    2       1          4       0.25259108D-03
    2       1          5       0.28496312D-04
    2       1          6       0.66796609D-05
*** CPKS converged.
----------------------------------------------
    2       2          1       0.14009147D-01
    2       2          2       0.30322100D-02
    2       2          3       0.11794418D-02
    2       2          4       0.26068509D-03
    2       2          5       0.27967816D-04
    2       2          6       0.63563515D-05
*** CPKS converged.
----------------------------------------------
    2       3          1       0.16897330D-01
    2       3          2       0.28476773D-02
    2       3          3       0.87006700D-03
    2       3          4       0.73537025D-04
    2       3          5       0.77629561D-05
*** CPKS converged.
----------------------------------------------

====================  end of solving CPKS equations  ====================

==========================
###### NUCLEUS:     3  H  
==========================

====================  solving CPKS equations  ====================

NUCLEUS  COORD.    ITERATION   ACCURACY
-------  ------    ---------   --------
    3       1          1       0.16517531D-01
    3       1          2       0.30548588D-02
    3       1          3       0.11800550D-02
    3       1          4       0.29004570D-03
    3       1          5       0.31188820D-04
    3       1          6       0.69400794D-05
*** CPKS converged.
----------------------------------------------
    3       2          1       0.18000929D-01
    3       2          2       0.31276387D-02
    3       2          3       0.11343824D-02
    3       2          4       0.27983368D-03
    3       2          5       0.29026317D-04
    3       2          6       0.65649098D-05
*** CPKS converged.
----------------------------------------------
    3       3          1       0.65313678D-02
    3       3          2       0.10171860D-02
    3       3          3       0.34666815D-03
    3       3          4       0.32737137D-04
    3       3          5       0.60227763D-05
*** CPKS converged.
----------------------------------------------

====================  end of solving CPKS equations  ====================

==========================
###### NUCLEUS:     4  H  
==========================

====================  solving CPKS equations  ====================

NUCLEUS  COORD.    ITERATION   ACCURACY
-------  ------    ---------   --------
    4       1          1       0.80217086D-02
    4       1          2       0.22106263D-02
    4       1          3       0.10417413D-02
    4       1          4       0.16622292D-03
    4       1          5       0.19983821D-04
    4       1          6       0.61509655D-05
*** CPKS converged.
----------------------------------------------
    4       2          1       0.71364082D-02
    4       2          2       0.18479271D-02
    4       2          3       0.92341850D-03
    4       2          4       0.15008896D-03
    4       2          5       0.18254915D-04
    4       2          6       0.56499157D-05
*** CPKS converged.
----------------------------------------------
    4       3          1       0.22216401D-01
    4       3          2       0.39525111D-02
    4       3          3       0.10072857D-02
    4       3          4       0.10380814D-03
    4       3          5       0.11807261D-04
    4       3          6       0.16290192D-05
*** CPKS converged.
----------------------------------------------

====================  end of solving CPKS equations  ====================


====================================================================
*** DONE CALCULATING ANALYTICAL SECOND DERIVATIVES OF THE ENERGY ***
====================================================================

 Mulliken charges used for AMS results%charges...
Scanning modes in range provided by user.


    =====================
     CALCULATION RESULTS
    =====================

Energy (hartree)            -0.68311197

Gradients (hartree/bohr)
  Index   Atom            d/dx            d/dy            d/dz
      1      C    0.0000032648   -0.0000002867    0.0000135013
      2      H   -0.0000482434   -0.0000758396    0.0000842501
      3      H    0.0000749193    0.0000961070    0.0000234452
      4      H   -0.0000299407   -0.0000199807   -0.0001211966

 -----------------------
 Normal Mode Frequencies
 -----------------------

 Index   Frequency (cm-1)   Intensity (km/mol)
     7           568.0458              66.1164
     8          1324.5446               6.4297
     9          1324.9075               6.4345
    10          3031.0519               0.0000
    11          3218.6066               0.1538
    12          3218.6632               0.1577

 Zero-point energy (Hartree):     0.0289

 ------------
 Normal Modes
 ------------

 Number of removed rigid normal modes: 6
 
 Mode:     7      Frequency (cm-1):      568.0458     Intensity (km/mol):       66.1164
 Index  Atom      ---- Displacements (x/y/z) ----
     1     C      -0.107871   0.095129   0.006037
     2     H       0.428039  -0.377780  -0.023764
     3     H       0.428204  -0.377525  -0.024124
     4     H       0.428158  -0.377383  -0.023992
 
 Mode:     8      Frequency (cm-1):     1324.5446     Intensity (km/mol):        6.4297
 Index  Atom      ---- Displacements (x/y/z) ----
     1     C       0.036854   0.046353  -0.071188
     2     H       0.066931   0.076015  -0.004264
     3     H      -0.079212  -0.135461   0.716815
     4     H      -0.426531  -0.492470   0.135076
 
 Mode:     9      Frequency (cm-1):     1324.9075     Intensity (km/mol):        6.4345
 Index  Atom      ---- Displacements (x/y/z) ----
     1     C      -0.048984  -0.051792  -0.059133
     2     H       0.394733   0.411395   0.570651
     3     H      -0.090597  -0.122335   0.315119
     4     H       0.279111   0.327615  -0.181687
 
 Mode:    10      Frequency (cm-1):     3031.0519     Intensity (km/mol):        0.0000
 Index  Atom      ---- Displacements (x/y/z) ----
     1     C      -0.000027   0.000012  -0.000147
     2     H       0.255254   0.315047  -0.410062
     3     H      -0.373965  -0.414838  -0.145242
     4     H       0.119037   0.099653   0.557049
 
 Mode:    11      Frequency (cm-1):     3218.6066     Intensity (km/mol):        0.1538
 Index  Atom      ---- Displacements (x/y/z) ----
     1     C      -0.058162  -0.068717   0.044181
     2     H       0.336876   0.416264  -0.549457
     3     H       0.396894   0.439678   0.165063
     4     H      -0.041248  -0.037736  -0.141660
 
 Mode:    12      Frequency (cm-1):     3218.6632     Intensity (km/mol):        0.1577
 Index  Atom      ---- Displacements (x/y/z) ----
     1     C      -0.032061  -0.030670  -0.089886
     2     H      -0.126353  -0.154473   0.179878
     3     H       0.345828   0.384476   0.121645
     4     H       0.162274   0.135178   0.768730

PES point character: Geometry corresponds to a local minimum on the PES.




 ============================
 Statistical Thermal Analysis  ***  ideal gas assumed  ***
 ============================
  
 Pressure:                  1.000000 atm.
 Temperature:             298.150000 K



 Moments of Inertia [amu*bohr^2] and principal axis
 ==================================================

           6.3936          6.3953         12.7889
 ------------------------------------------------
           0.6487         -0.1336         -0.7492
           0.7451         -0.0892          0.6610
          -0.1552         -0.9870          0.0417


 The rotational contribution to the molecular entropy includes
 a term, dependent on the symmetry number sigma. The results 
 reported below were computed using sigma = 1, determined from
 the point group symmetry of the input geometry (NOSYM). 
 If this is not the correct symmetry, try symmetrizing the molecule before
 running the calculation (note: linear molecules should be aligned along one
 of the Cartesian axes).
 Contributions from frequencies below 20 1/cm are not included in vibrational sums.
 Their contributions, if any, are reported separately.


     Temp                                                        Transl      Rotat     Vibrat     Total
     ----                                                        ------      -----     ------     -----

     298.15   Entropy (cal/mol-K):                               34.068     14.022      0.557     48.647
              Nuclear Internal Energy (kcal/mol):                 0.889      0.889     18.260     20.037
              Constant Volume Heat Capacity (cal/mol-K):          2.981      2.981      1.373      7.335
          (c) Constant Volume Heat Capacity (cal/mol-K):          2.981      2.981      1.373      7.335

       Summary of energy terms
                                                   hartree              eV         kcal/mol           kJ/mol
                                      --------------------     -----------       ----------      -----------
      Energy from Engine:               -0.683111966466342        -18.5884          -428.66         -1793.51
      Nuclear Internal Energy:           0.031931659280772          0.8689            20.04            83.84
  (c) Nuclear Internal Energy:           0.031930512959007          0.8689            20.04            83.83
      Internal Energy U:                -0.651180307185571        -17.7195          -408.62         -1709.67
      pV/n = RT:                         0.000944186013486          0.0257             0.59             2.48
      Enthalpy H:                       -0.650236121172085        -17.6938          -408.03         -1707.19
      -T*S:                             -0.023113937193298         -0.6290           -14.50           -60.69
  (c) -T*S:                             -0.023114227594785         -0.6290           -14.50           -60.69
      Gibbs free energy:                -0.673350058365382        -18.3228          -422.53         -1767.88
 
 
 
  (c) The properties marked with this symbol have been corrected using 'low vibrational frequency free rotor
      interpolation corrections'. For those terms all positive frequencies are used (also ones below 20 1/cm),
      but the contribution to the partition function of small vibrational frequencies is modified as described
      in the following paper:
      S. Grimme, 'Supramolecular Binding Thermodynamics by Dispersion-Corrected Density Functional Theory'
      (Chem. Eur. J. 2012, 18, 9955-9964)
      Configuration: Dampener Frequency          :   100.000 1/cm
                     Dampener Alpha              :     4.000
                     Averaging Moment of Inertia : 1.000E-44 kg m2

--------------
Atomic charges
--------------
  Index   Atom    Charge
      1      C    0.3315
      2      H   -0.1105
      3      H   -0.1104
      4      H   -0.1105


Dipole moment vector    (Debye):     0.00021125   -0.00038432    0.00022353
              magnitude (Debye):     0.00049224


Final PES point is a local minimum. Geometry optimization successful!


AMS application finished. Exiting.
NORMAL TERMINATION
     Total cpu time:      61.66
  Total system time:      12.34
 Total elapsed time:      90.42
