

 Parallel Execution: Process Information
 ==============================================================================
 Rank   Node Name                              NodeID   MyNodeRank  NodeMaster
    0   dhcp-187-164.clients.vu.nl                0          0          0
    1   dhcp-187-164.clients.vu.nl                0          1         -1
    2   dhcp-187-164.clients.vu.nl                0          2         -1
    3   dhcp-187-164.clients.vu.nl                0          3         -1
    4   dhcp-187-164.clients.vu.nl                0          4         -1
    5   dhcp-187-164.clients.vu.nl                0          5         -1
    6   dhcp-187-164.clients.vu.nl                0          6         -1
    7   dhcp-187-164.clients.vu.nl                0          7         -1
    8   dhcp-187-164.clients.vu.nl                0          8         -1
    9   dhcp-187-164.clients.vu.nl                0          9         -1
 ==============================================================================


May use up to 15625MB of RAM as shared memory on node 0

 *******************************************************************************
 *                                                                             *
 *  --------------------------------                                           *
 *   Amsterdam Modeling Suite (AMS)              2022.103                      *
 *  --------------------------------                                           *
 *                                               r104886 2022-06-17            *
 *                                                                             *
 *                                                                             *
 *                              =================                              *
 *                              |               |                              *
 *                              |     A M S     |                              *
 *                              |               |                              *
 *                              =================                              *
 *                                                                             *
 *                                                                             *
 *   Online information and documentation:  https://www.scm.com/support/       *
 *   E-mail:  support@scm.com   info@scm.com                                   *
 *                                                                             *
 *   Scientific publications using AMS results must be properly referenced     *
 *   See the User Manuals (or the web site) for recommended citations          *
 *   The terms and conditions of the End User License Agreement apply to       *
 *   the use of AMS, https://www.scm.com/license-terms/                        *
 *                                                                             *
 **********************  x86_64_darwin_intel / openmpi  ************************
 
 Licensed to: Prof Visscher, Prof Bickelhaupt, Prof Fonseca Guerra / Vrije Universiteit, Theoretische Chemie / Amsterdam / NETHERLANDS 2022-12-13 09:59:29
 SCM User ID: u21794
  
 AMS 2022.103  RunTime: Sep28-2023 12:05:25  ShM Nodes: 1  Procs: 10

 AMS jobname: ams
 AMS jobid  : 1591562573

 Start   directory: /Users/yumanhordijk/PhD/pi_rotation/butadiene/tmp.yumanhordijk.60176.0.noindex/
 Results directory: /Users/yumanhordijk/PhD/pi_rotation/butadiene/go.results/
 Scratch directory: /tmp/amstmp_ams_kid0.1591562573/


 Communication costs MPI_COMM_WORLD:      3.164 usec per message,   0.0272 usec per 8-byte item
 Communication costs for intra-node:      3.573 usec per message,   0.0233 usec per 8-byte item

 RNG seed: 1556213065 220541835 311965984 197119379 1487713075 1884689259 1137724436 -1781100753



                     *************************************************************************
                     *  ADF 2022.103  RunTime: Sep28-2023 12:05:28  ShM Nodes: 1  Procs: 10  *
                     *************************************************************************
  
       ***************************
       *  GEOMETRY OPTIMIZATION  *
       ***************************

Optimization Method                    Quasi Newton
Optimization Coordinates               Delocalized Coordinates
Optimize lattice                       F
 
 ------------------------------------------------------
 Convergence criteria (Hartree,Angstrom)
 ------------------------------------------------------
 Maximum gradient               0.001000000000
 Maximum rms gradient           0.000666666667
 Maximum step allowed           0.010000000000
 Maximum rms step allowed       0.006666666667
 Maximum energy change allowe   0.000100000000
 Maximum stress energy allowe   0.000500000000
 
Initial model Hessian                  Automatic Hessian
 
------------------------------------
Quasi-Newton Optimizer Parameters
------------------------------------
Hessian Update Method                  BFGS
Maximum number of steps                  250
First GDIIS cycle                          0
Maximum GDIIS vectors                      0
Trust radius (bohr)                        0.200000
Trust radius varies                        T
Constraints converged at all steps         T
Use projector                              T
 
 Rigid motions settings for: old optimizer
 Atomic rotations (x,y,z):     T T T
 Atomic translations (x,y,z):  T T T
 Tolerance:                   1.000000000000000E-006
 
--------
Geometry
--------
Formula: C4H6
Atoms
  Index Symbol   x (angstrom)   y (angstrom)   z (angstrom)
      1      C     0.00000000    -1.51139118     0.44346505
      2      C     0.00000000    -0.72970986    -0.63458689
      3      C     0.00000000     0.72970986    -0.63458689
      4      C     0.00000000     1.51139118     0.44346505
      5      H     0.00000000    -2.58924027     0.35810377
      6      H     0.00000000    -1.12280281     1.45334919
      7      H     0.00000000    -1.18799415    -1.62033112
      8      H     0.00000000     1.18799415    -1.62033112
      9      H     0.00000000     2.58924027     0.35810377
     10      H     0.00000000     1.12280281     1.45334919
 
Total System Charge             0.00000
Bonding info available!
 
 
----------------
ADF Engine Input
----------------
 
 Basis
 Type SZ
 Core None
 End
 XC
 GGA OLYP
 End
 Symmetry NOSYM
 NumericalQuality Good
 

 Title: *** (NO TITLE) ***

Number of symmetry operators: 4
Schoenflies symbol:           C(2V)
 Using automatic Hessian for delocalized coordinates.
 *** GO1_GOStep1 ***

 Energy gradients wrt nuclear displacements
 ==========================================

     Atom      Cartesian (a.u./angstrom)
                 X         Y         Z
 ----------------------------------------
     1 C     0.000000  0.024449 -0.021749
     2 C    -0.000000  0.001523  0.021251
     3 C    -0.000000 -0.001524  0.021253
     4 C    -0.000000 -0.024449 -0.021750
     5 H     0.000000  0.025118  0.002440
     6 H    -0.000000 -0.008831 -0.020736
     7 H    -0.000000  0.011435  0.018794
     8 H     0.000000 -0.011435  0.018794
     9 H    -0.000000 -0.025118  0.002440
    10 H    -0.000000  0.008831 -0.020736
 ----------------------------------------
 Mulliken charges used for AMS results%charges...
 
----------------------------------------------------------------------
Geometry Convergence after Step   1       (Hartree/Angstrom,Angstrom)
----------------------------------------------------------------------
current energy                               -2.40921992 Hartree
energy change                      -2.40921992     0.00010000    F
constrained gradient max            0.02511752     0.00100000    F
constrained gradient rms            0.01449954     0.00066667    F
gradient max                        0.02511752
gradient rms                        0.01449954
cart. step max                      0.08935619     0.01000000    F
cart. step rms                      0.03632104     0.00666667    F
 
 
--------
Geometry
--------
Formula: C4H6
Atoms
  Index Symbol   x (angstrom)   y (angstrom)   z (angstrom)
      1      C    -0.00000000    -1.57543922     0.44793628
      2      C    -0.00000000    -0.74397921    -0.62725912
      3      C     0.00000000     0.74397921    -0.62725912
      4      C     0.00000000     1.57543922     0.44793628
      5      H    -0.00000000    -2.66404184     0.32752444
      6      H    -0.00000000    -1.21215900     1.48048343
      7      H    -0.00000000    -1.19736768    -1.62868503
      8      H     0.00000000     1.19736768    -1.62868503
      9      H     0.00000000     2.66404184     0.32752444
     10      H     0.00000000     1.21215900     1.48048343
 
Total System Charge             0.00000
Bonding info available!
 
 *** GO1_GOStep2 ***

 Energy gradients wrt nuclear displacements
 ==========================================

     Atom      Cartesian (a.u./angstrom)
                 X         Y         Z
 ----------------------------------------
     1 C     0.000000 -0.009984  0.010567
     2 C    -0.000000  0.008399 -0.012990
     3 C     0.000000 -0.008400 -0.012989
     4 C     0.000000  0.009985  0.010567
     5 H    -0.000000  0.003636  0.002377
     6 H    -0.000000 -0.003228 -0.004055
     7 H     0.000000  0.002094  0.004100
     8 H     0.000000 -0.002094  0.004100
     9 H    -0.000000 -0.003636  0.002377
    10 H    -0.000000  0.003228 -0.004055
 ----------------------------------------
 Mulliken charges used for AMS results%charges...

 dE(predicted):    -0.35742E-02, dE(actual):    -0.31615E-02, Trust radius:    0.200000, all in a.u.
 
----------------------------------------------------------------------
Geometry Convergence after Step   2       (Hartree/Angstrom,Angstrom)
----------------------------------------------------------------------
current energy                               -2.41238145 Hartree
energy change                      -0.00316153     0.00010000    F
constrained gradient max            0.01298950     0.00100000    F
constrained gradient rms            0.00587405     0.00066667    F
gradient max                        0.01298950
gradient rms                        0.00587405
cart. step max                      0.01910776     0.01000000    F
cart. step rms                      0.00597811     0.00666667    T
 
 
--------
Geometry
--------
Formula: C4H6
Atoms
  Index Symbol   x (angstrom)   y (angstrom)   z (angstrom)
      1      C    -0.00000000    -1.56631019     0.44811364
      2      C    -0.00000000    -0.74466718    -0.62831156
      3      C     0.00000000     0.74466718    -0.62831156
      4      C     0.00000000     1.56631019     0.44811364
      5      H    -0.00000000    -2.65769069     0.33043557
      6      H    -0.00000000    -1.19305124     1.48023159
      7      H    -0.00000000    -1.20319441    -1.63046923
      8      H     0.00000000     1.20319441    -1.63046923
      9      H     0.00000000     2.65769069     0.33043557
     10      H     0.00000000     1.19305124     1.48023159
 
Total System Charge             0.00000
Bonding info available!
 
 *** GO1_GOStep3 ***

 Energy gradients wrt nuclear displacements
 ==========================================

     Atom      Cartesian (a.u./angstrom)
                 X         Y         Z
 ----------------------------------------
     1 C     0.000000 -0.001039  0.000422
     2 C    -0.000000  0.002528 -0.001197
     3 C     0.000000 -0.002528 -0.001197
     4 C    -0.000000  0.001040  0.000422
     5 H    -0.000000  0.000140  0.000410
     6 H    -0.000000 -0.000586 -0.000156
     7 H     0.000000 -0.000050  0.000521
     8 H     0.000000  0.000050  0.000521
     9 H     0.000000 -0.000140  0.000410
    10 H     0.000000  0.000586 -0.000156
 ----------------------------------------
 Mulliken charges used for AMS results%charges...

 dE(predicted):    -0.13149E-03, dE(actual):    -0.14840E-03, Trust radius:    0.200000, all in a.u.
 
----------------------------------------------------------------------
Geometry Convergence after Step   3       (Hartree/Angstrom,Angstrom)
----------------------------------------------------------------------
current energy                               -2.41252985 Hartree
energy change                      -0.00014840     0.00010000    F
constrained gradient max            0.00252799     0.00100000    F
constrained gradient rms            0.00081291     0.00066667    F
gradient max                        0.00252799
gradient rms                        0.00081291
cart. step max                      0.00818309     0.01000000    T
cart. step rms                      0.00267321     0.00666667    T
 
 
--------
Geometry
--------
Formula: C4H6
Atoms
  Index Symbol   x (angstrom)   y (angstrom)   z (angstrom)
      1      C    -0.00000000    -1.56281812     0.44864610
      2      C    -0.00000000    -0.74506625    -0.62987097
      3      C     0.00000000     0.74506625    -0.62987097
      4      C     0.00000000     1.56281812     0.44864610
      5      H    -0.00000000    -2.65471597     0.33377481
      6      H    -0.00000000    -1.18486815     1.47939365
      7      H    -0.00000000    -1.20470546    -1.63194358
      8      H     0.00000000     1.20470546    -1.63194358
      9      H     0.00000000     2.65471597     0.33377481
     10      H     0.00000000     1.18486815     1.47939365
 
Total System Charge             0.00000
Bonding info available!
 
 *** GO1_GOStep4 ***

 Energy gradients wrt nuclear displacements
 ==========================================

     Atom      Cartesian (a.u./angstrom)
                 X         Y         Z
 ----------------------------------------
     1 C     0.000000  0.000266 -0.000370
     2 C     0.000000  0.000774  0.000199
     3 C    -0.000000 -0.000774  0.000200
     4 C    -0.000000 -0.000265 -0.000370
     5 H    -0.000000 -0.000153  0.000004
     6 H    -0.000000 -0.000046  0.000253
     7 H     0.000000 -0.000184 -0.000087
     8 H    -0.000000  0.000184 -0.000087
     9 H    -0.000000  0.000153  0.000004
    10 H     0.000000  0.000046  0.000253
 ----------------------------------------
 Mulliken charges used for AMS results%charges...

 dE(predicted):    -0.61125E-05, dE(actual):    -0.39201E-05, Trust radius:    0.200000, all in a.u.
 
---------------------------------------------------------
Geometry Convergence after Step   4       ** CONVERGED **
---------------------------------------------------------
current energy                               -2.41253377 Hartree
energy change                      -0.00000392     0.00010000    T
constrained gradient max            0.00077399     0.00100000    T
constrained gradient rms            0.00025524     0.00066667    T
gradient max                        0.00077399
gradient rms                        0.00025524
cart. step max                      0.00106758     0.01000000    T
cart. step rms                      0.00035488     0.00666667    T
 
Geometry optimization converged

Optimized geometry:
 
--------
Geometry
--------
Formula: C4H6
Atoms
  Index Symbol   x (angstrom)   y (angstrom)   z (angstrom)
      1      C    -0.00000000    -1.56281812     0.44864610
      2      C    -0.00000000    -0.74506625    -0.62987097
      3      C     0.00000000     0.74506625    -0.62987097
      4      C     0.00000000     1.56281812     0.44864610
      5      H    -0.00000000    -2.65471597     0.33377481
      6      H    -0.00000000    -1.18486815     1.47939365
      7      H    -0.00000000    -1.20470546    -1.63194358
      8      H     0.00000000     1.20470546    -1.63194358
      9      H     0.00000000     2.65471597     0.33377481
     10      H     0.00000000     1.18486815     1.47939365
 
Total System Charge             0.00000
Bonding info available!
 
Performing a single point calculation on the final geometry ...

 *** adf ***



 ===========================
 A T T A C H E D   F I L E S
 ===========================
  
 Restart/tmp/amstmp_ams_kid0.1591562573/GO1_GOStep4.rkf*** GO1_GOStep4 ***



 ===============================
 M O D E L   P A R A M E T E R S
 ===============================
  
 DENSITY FUNCTIONAL POTENTIAL (scf)
    LDA:                               Exchange only                           == Not Default ==
    Gradient Corrections:              OPTX LYP                                == Not Default ==

 SPIN  (restricted / unrestr.)
    Molecule:                          Restricted                               
    Fragments:                         Restricted                               

 OTHER ASPECTS
    Relativistic Corrections:          scalar (ZORA,MAPA)                       

    Nuclear Charge Density Model:      Point Charge Nuclei                      
    Core Treatment:                    Frozen Orbital(s)                        

    Hyperfine or Zeeman Interaction:   ---                                      



 ===============
 G E O M E T R Y  ***  Planar Molecule  ***
 ===============
  

 ATOMS
 =====                            X Y Z                    CHARGE
                                (Angstrom)             Nucl     +Core       At.Mass
                       --------------------------    ----------------       -------
    1  C              -0.0000   -1.5628    0.4486      6.00      6.00       12.0000
    2  C              -0.0000   -0.7451   -0.6299      6.00      6.00       12.0000
    3  C               0.0000    0.7451   -0.6299      6.00      6.00       12.0000
    4  C               0.0000    1.5628    0.4486      6.00      6.00       12.0000
    5  H              -0.0000   -2.6547    0.3338      1.00      1.00        1.0078
    6  H              -0.0000   -1.1849    1.4794      1.00      1.00        1.0078
    7  H              -0.0000   -1.2047   -1.6319      1.00      1.00        1.0078
    8  H               0.0000    1.2047   -1.6319      1.00      1.00        1.0078
    9  H               0.0000    2.6547    0.3338      1.00      1.00        1.0078
   10  H               0.0000    1.1849    1.4794      1.00      1.00        1.0078


 FRAGMENTS
 =========                                     Atoms in this Fragment     Cart. coord.s (Angstrom)
                                               -------------------------------------------------------
    1  C                                                 1  C           -0.0000   -1.5628    0.4486
    2  C                                                 2  C           -0.0000   -0.7451   -0.6299
    3  C                                                 3  C            0.0000    0.7451   -0.6299
    4  C                                                 4  C            0.0000    1.5628    0.4486
    5  H                                                 5  H           -0.0000   -2.6547    0.3338
    6  H                                                 6  H           -0.0000   -1.1849    1.4794
    7  H                                                 7  H           -0.0000   -1.2047   -1.6319
    8  H                                                 8  H            0.0000    1.2047   -1.6319
    9  H                                                 9  H            0.0000    2.6547    0.3338
   10  H                                                10  H            0.0000    1.1849    1.4794


 Interatomic Distance Matrix (Angstrom)
 --------------------------------------

   1)     0.000
   2)     1.353   0.000
   3)     2.547   1.490   0.000
   4)     3.126   2.547   1.353   0.000
   5)     1.098   2.139   3.534   4.219   0.000
   6)     1.098   2.155   2.859   2.935   1.864   0.000
   7)     2.111   1.102   2.192   3.462   2.443   3.111   0.000
   8)     3.462   2.192   1.102   2.111   4.331   3.923   2.409   0.000
   9)     4.219   3.534   2.139   1.098   5.309   4.007   4.331   2.443   0.000
  10)     2.935   2.859   2.155   1.098   4.007   2.370   3.923   3.111   1.864   0.000

 Min. Distance =    1.0979
 Max. Distance =    5.3094



 =====================================
 S Y M M E T R Y ,   E L E C T R O N S
 =====================================
  
 Symmetry: NOSYM

 Irreducible Representations, including subspecies
 -------------------------------------------------
 A


 Configuration of Valence Electrons
 ==================================
 ( determined in the SCF procedure )

 Total:   30

 Net Charge: 0 (Nuclei minus Electrons)

 Aufbau principle for MO occupations will be applied through SCF cycle no.     150
 Thereafter, the program will assign electrons to MOs that are spatially
 similar to the occupied MOs in a "reference" cycle ("KeepOrbitals").
 The reference cycle is always the PREVIOUS cycle: it will evolve with
 the SCF procedure.
1
 ***************************************************************************************************



                                      ****************************************
                                      *  B U I L D : (Fragments, Functions)  *
                                      ****************************************
  



 =======
 S F O s  ***  (Symmetrized Fragment Orbitals)  ***
 =======
  
 SFOs are linear combinations of (valence) Fragment Orbitals (FOs), such that the SFOs transform as the
 irreducible representations of the (molecular) symmetry group. Each SFO is therefore characterized by
 an irrep of the molecule and by a few (or only one) generating FOs.
 The SFOs constitute a symmetry-adapted basis for the Fock matrix. The MO eigenvector coefficients in
 this basis provide a direct interpretation of the MOs in terms of Frontier Orbital Theory.

 The SFOs are combined with auxiliary Core Functions (CFs) to ensure orthogonalization on the (frozen)
 Core Orbitals (COs). The Core-orthogonalized SFOs (CSFOs) constitute the true Fock basis.

 The FOs, and hence also the (C)SFOs are combinations of the elementary basis functions (BAS). The basis
 functions that participate in the description of the SFOs depend on the irrep. The indices of the
 involved functions are printed below for each irrep.
 (The complete list of primitive basis functions is printed in another section)

 Total nr. of (C)SFOs (summation over all irreps) :    26

 NOTE: a (C)SFO that is defined as a combination of more than one FO is usually NOT normalized.



                                       === A ===
 Nr. of SFOs :   26
 Cartesian basis functions that participate in this irrep (total number =    26) :
      1     2     3     4     5     6     7     8     9    10
     11    12    13    14    15    16    17    18    19    20
     21    22    23    24    25    26

    SFO  (index         Fragment          Generating    Expansion in Fragment Orbitals
  indx  incl.CFs)   Occup   Orb.Energy   FragmentType  Coeff.   Orbital     on Fragment
 --------------------------------------------------------------------------------------
     1       1      2.000      -9.759 au  C             1.00      1 S               1
                        (    -265.558 eV)
     2       2      2.000      -0.371 au  C             1.00      2 S               1
                        (     -10.106 eV)
     3       3      0.667      -0.024 au  C             1.00      1 P:x             1
                        (      -0.653 eV)
     4       4      0.667      -0.024 au  C             1.00      1 P:y             1
                        (      -0.653 eV)
     5       5      0.667      -0.024 au  C             1.00      1 P:z             1
                        (      -0.653 eV)
     6       6      2.000      -9.759 au  C             1.00      1 S               2
                        (    -265.558 eV)
     7       7      2.000      -0.371 au  C             1.00      2 S               2
                        (     -10.106 eV)
     8       8      0.667      -0.024 au  C             1.00      1 P:x             2
                        (      -0.653 eV)
     9       9      0.667      -0.024 au  C             1.00      1 P:y             2
                        (      -0.653 eV)
    10      10      0.667      -0.024 au  C             1.00      1 P:z             2
                        (      -0.653 eV)
    11      11      2.000      -9.759 au  C             1.00      1 S               3
                        (    -265.558 eV)
    12      12      2.000      -0.371 au  C             1.00      2 S               3
                        (     -10.106 eV)
    13      13      0.667      -0.024 au  C             1.00      1 P:x             3
                        (      -0.653 eV)
    14      14      0.667      -0.024 au  C             1.00      1 P:y             3
                        (      -0.653 eV)
    15      15      0.667      -0.024 au  C             1.00      1 P:z             3
                        (      -0.653 eV)
    16      16      2.000      -9.759 au  C             1.00      1 S               4
                        (    -265.558 eV)
    17      17      2.000      -0.371 au  C             1.00      2 S               4
                        (     -10.106 eV)
    18      18      0.667      -0.024 au  C             1.00      1 P:x             4
                        (      -0.653 eV)
    19      19      0.667      -0.024 au  C             1.00      1 P:y             4
                        (      -0.653 eV)
    20      20      0.667      -0.024 au  C             1.00      1 P:z             4
                        (      -0.653 eV)
    21      21      1.000      -0.120 au  H             1.00      1 S               5
                        (      -3.265 eV)
    22      22      1.000      -0.120 au  H             1.00      1 S               6
                        (      -3.265 eV)
    23      23      1.000      -0.120 au  H             1.00      1 S               7
                        (      -3.265 eV)
    24      24      1.000      -0.120 au  H             1.00      1 S               8
                        (      -3.265 eV)
    25      25      1.000      -0.120 au  H             1.00      1 S               9
                        (      -3.265 eV)
    26      26      1.000      -0.120 au  H             1.00      1 S              10
                        (      -3.265 eV)



 ================================
 (Slater-type)  F U N C T I O N S  ***  (Basis and Fit)  ***
 ================================
  

 Atom Type    1  (C)
 ==============

 Valence Basis Sets:   3
 -----------------------
   1 S    5.670000
   2 S    1.720000
   2 P    1.720000

 Atom Type    2  (H)
 ==============

 Valence Basis Sets:   1
 -----------------------
   1 S    1.240000


 BAS: List of all Elementary Cartesian Basis Functions
 =====================================================

 The numbering in the list below (to the right of the function characteristics) is referred
 to in print-outs of MO eigenvectors and Mulliken populations in the BAS representation
 (as contrasted to the SFO representation).

 Notes:
 1. The functions are characterized by a polynomial prefactor (powers of x,y,z and r) and
    an exponential decay factor alpha.
 2. Since the basis sets are specific for an atom TYPE, the individual functions occur on
    all atoms of that type.
 3. The word 'Core' in the left margin signals that it is a Core Function (CF) : not a
    degree of freedom in the valence set, but only used to ensure orthogonalization of
    the other valence basis functions on the frozen Core Orbitals.


 (power of) X  Y  Z  R     Alpha  on Atom
            ==========     =====     ==========

 C                                    1    2    3    4
                                  ---------------------------------------------------------------------------
            0  0  0  0     5.670      1    6   11   16
            0  0  0  1     1.720      2    7   12   17
            1  0  0  0     1.720      3    8   13   18
            0  1  0  0     1.720      4    9   14   19
            0  0  1  0     1.720      5   10   15   20

 H                                    5    6    7    8    9   10
                                  ---------------------------------------------------------------------------
            0  0  0  0     1.240     21   22   23   24   25   26

 Total number of charge fitting functions (nprimf)       636
 Total number of Cartesian basis functions (naos)         26
 Total number of Cartesian core functions  (ncos)          0

1
 ***************************************************************************************************



                                              ***********************
                                              *  T E C H N I C A L  *
                                              ***********************
  



 =============================================================
 P A R A L L E L I Z A T I O N  and  V E C T O R I Z A T I O N
 =============================================================
  
 Nr of parallel processes:                               10
 Maximum vector length in NumInt loops:                 128



 =====================
 S C F   U P D A T E S
 =====================
  
 Max. nr. of cycles:                               300
 Convergence criterion:                              0.0000010000
   secondary criterion:                              0.0010000000

 Mix parameter (when DIIS does not apply):           0.2000000000
 Mixed ADIIS+SDIIS will be used                  
    Max number of expansion vectors:                10
    Pure ADIIS when Max([F,P]) is above              0.1000000000
    Pure SDIIS when Max([F,P]) is below              0.0010000000
 Automatic ElectronSmearing (in case of problematic SCF convergence) disabled



 =================
 P R E C I S I O N  ***  (General: NumInt, NeglectFunctionTails, ...)  ***
 =================
  

 NumInt:           Target precision:                 6.0000000000
 -------           Initial precision:                6.0000000000
                   Min. precision (optimization):    6.0000000000

 Neglect Functions:          Basis functions:        0.1000000000E-07
 ------------------          Fit functions:          0.1000000000E-07



 ===========================
 L I N E A R   S C A L I N G
 ===========================
  

 Cut-off radii density fit:                        0.1000000000E-09
 Overlap cut-off criterion AO matrix elements:     0.1000000000E-07
 Cut-offs for Coulomb potential and fitted density:0.1000000000E-09
 Cut-off criterion for Coulomb multipole terms:    0.1000000000E-09
 Progressive Convergence parameter:                 0.000000000    

 Number of elements of the density matrix on this node (used, total):        43       351



 ===========================================
 Numerical Integration : Fuzzy Cells (Becke)
 ===========================================
  
 Becke grid quality: GOOD           
  
 Lebedev angular grid order:             min:  11 max:  31
 Nr. of radial points:                   min:  54 max:  58

 Total nr. of points:     120286
 Nr. of blocks:              940
 Block length:               128
 Nr. of dummy points:         34


 Test of Precision of the Numerical Integration Grid
 ===================================================

 Integral of the Total Core Density:                   0.00000000000000



 ========================
 Density Fitting (zlmFit)
 ========================
  
 ZlmFit Fit Quality: GOOD           
  
 Max L-expansion:                        min:   6 max:   7
 Nr. of radial interpolation points:     min:  72 max:  90



 =====
 S C F  ***  ScaSCF  ***
 =====
  
 Initial density matrix is taken from previous geometry

 CYCLE    1
  ***********************************************************
  ** : orbital data taken from :/tmp/amstmp_ams_kid0.1591562573/GO1_GOStep4.rkf
  ***********************************************************
 SCF Error: norm([F,P])=      0.000000365578, max([F,P])=      0.000000203798
 orbitals (Q,E):
 ---------------
 A :6...25           ( 2.00    -0.6178)  ( 2.00    -0.5197)  ( 2.00    -0.4370)  ( 2.00    -0.3954)
                     ( 2.00    -0.3432)  ( 2.00    -0.3293)  ( 2.00    -0.2751)  ( 2.00    -0.2615)
                     ( 2.00    -0.2237)  ( 2.00    -0.1396)  ( 0.00     0.0247)  ( 0.00     0.1444)
                     ( 0.00     0.3042)  ( 0.00     0.3177)  ( 0.00     0.3530)  ( 0.00     0.3864)
                     ( 0.00     0.4085)  ( 0.00     0.4971)  ( 0.00     0.5508)  ( 0.00     0.6084)

 CYCLE    2
  SDIIS (wt  0.000):  0.7412  0.2588
 A-DIIS (wt  1.000):  0.8684  0.1316
  DIIS coefficients:  0.8684  0.1316
 SCF Error: norm([F,P])=      0.000001030533, max([F,P])=      0.000000569411
 orbitals (Q,E):
 ---------------
 A :6...16           ( 2.00    -0.6178)  ( 2.00    -0.5197)  ( 2.00    -0.4370)  ( 2.00    -0.3954)
                     ( 2.00    -0.3432)  ( 2.00    -0.3293)  ( 2.00    -0.2751)  ( 2.00    -0.2615)
                     ( 2.00    -0.2237)  ( 2.00    -0.1396)  ( 0.00     0.0247)

 SCF CONVERGED

 CYCLE    3
1
 ***************************************************************************************************



                                                *******************
                                                *  R E S U L T S  *
                                                *******************
  
 *** Using FIT density in Focky
  SDIIS (wt  0.000):  0.2723 -0.4998  1.2275
 A-DIIS (wt  1.000):  0.7813  0.0000  0.2188
  DIIS coefficients:  0.7813  0.0000  0.2188
 SCF Error: norm([F,P])=      0.000000498596, max([F,P])=      0.000000279505

 Scaled ZORA Orbital Energies, per Irrep and Spin:
 =================================================
                        Occup              E (au)              E (eV)       Diff (eV) with prev. cycle
                        -----      --------------------        ------       --------------------------
 A
               6        2.000     -0.61784208776600E+00       -16.812               2.46E-08
               7        2.000     -0.51973935239207E+00       -14.143               1.11E-08
               8        2.000     -0.43701039910441E+00       -11.892               8.82E-09
               9        2.000     -0.39537034091970E+00       -10.759               7.69E-09
              10        2.000     -0.34316253739782E+00        -9.338               2.77E-08
              11        2.000     -0.32934021247866E+00        -8.962               2.90E-08
              12        2.000     -0.27514175414172E+00        -7.487               1.15E-09
              13        2.000     -0.26154579787899E+00        -7.117               4.37E-09
              14        2.000     -0.22372560219013E+00        -6.088               1.08E-08
              15        2.000     -0.13962382051377E+00        -3.799               2.81E-08
              16        0.000      0.24711914850130E-01         0.672
              17        0.000      0.14444104779644E+00         3.930
              18        0.000      0.30424456139504E+00         8.279
              19        0.000      0.31773849365479E+00         8.646
              20        0.000      0.35302528532958E+00         9.606
              21        0.000      0.38643109335156E+00        10.515
              22        0.000      0.40847015558061E+00        11.115
              23        0.000      0.49705074718612E+00        13.525
              24        0.000      0.55076559307986E+00        14.987
              25        0.000      0.60835721468594E+00        16.554
  
 HOMO :       15 A                -0.13962382051377E+00
 LUMO :       16 A                 0.24711914850130E-01
  


 All Electron Calculation, thus no Orbital Energies of the Core Orbitals are calculated


 Fit test: (difference of exact and fit density, squared integrated, result summed over spins)
         Sum-of-Fragments:                             0.00000000081265
         Orthogonalized Fragments:                     0.00005160680949
         SCF:                                          0.00015974815105



 ==========================
 Electron Density at Nuclei
 ==========================
  
 The electron density is calculated at points on a small sphere around the center of a nucleus.
 The printed electron density is the average electron density on these points.
 The radius of the sphere is the printed approximate finite nuclear radius.
 Note: ZORA-4 density is used, which includes small component density

         Atom        Nuclear Radius (Angstrom)             Electron Density (a.u.)
         ----        -------------------------             -----------------------
     1)   C                 0.0000320678                              119.83503
     2)   C                 0.0000320678                              119.82889
     3)   C                 0.0000320678                              119.82889
     4)   C                 0.0000320678                              119.83503
     5)   H                 0.0000181514                                0.50595
     6)   H                 0.0000181514                                0.50624
     7)   H                 0.0000181514                                0.51218
     8)   H                 0.0000181514                                0.51218
     9)   H                 0.0000181514                                0.50595
    10)   H                 0.0000181514                                0.50624



 =======================================
 M U L L I K E N   P O P U L A T I O N S
 =======================================
  
 The survey below gives for each atom:
 a) the total charge (Z minus electrons)
 b) the net spin polarization (nr of electrons spin-A minus spin-B)
 c) for each spin the atomic electron valence density (integrated) per L-value.

 Atom              Charge    Spin density          S         P         D         F
 ----              ------    ------------       ------    ------    ------    ------
 1 C              -0.1604                       3.1838    2.9766    0.0000    0.0000
 2 C              -0.0824                       3.1632    2.9192    0.0000    0.0000
 3 C              -0.0824                       3.1632    2.9192    0.0000    0.0000
 4 C              -0.1604                       3.1838    2.9766    0.0000    0.0000
 5 H               0.0822                       0.9178    0.0000    0.0000    0.0000
 6 H               0.0806                       0.9194    0.0000    0.0000    0.0000
 7 H               0.0800                       0.9200    0.0000    0.0000    0.0000
 8 H               0.0800                       0.9200    0.0000    0.0000    0.0000
 9 H               0.0822                       0.9178    0.0000    0.0000    0.0000
 10 H              0.0806                       0.9194    0.0000    0.0000    0.0000

 Populations of individual BAS functions
 ----------------------------------------
 1 C            1.9945  1.1893  1.0014  0.9902  0.9850
 2 C            1.9945  1.1688  0.9986  0.9363  0.9843
 3 C            1.9945  1.1688  0.9986  0.9363  0.9843
 4 C            1.9945  1.1893  1.0014  0.9902  0.9850
 5 H            0.9178
 6 H            0.9194
 7 H            0.9200
 8 H            0.9200
 9 H            0.9178
 10 H           0.9194

 Gross Charges per Atom (Z minus electrons)
 ==========================================
            -0.1604   -0.0824   -0.0824   -0.1604    0.0822    0.0806    0.0800    0.0800    0.0822    0.0806
 Net Total: -0.00000000


 Atom-Atom Population Matrix (off-diagonal elements not doubled)
 ===============================================================

     1 :     4.8620
     2 :     0.5825    4.7981
     3 :    -0.0238    0.4175    4.7981
     4 :    -0.0046   -0.0238    0.5825    4.8620
     5 :     0.3868   -0.0244    0.0018    0.0000    0.5834
     6 :     0.3847   -0.0240   -0.0038   -0.0001   -0.0242    0.5839
     7 :    -0.0287    0.3853   -0.0269    0.0016   -0.0055    0.0025    0.5961
     8 :     0.0016   -0.0269    0.3853   -0.0287   -0.0001    0.0000   -0.0043    0.5961
     9 :     0.0000    0.0018   -0.0244    0.3868    0.0000   -0.0000   -0.0001   -0.0055    0.5834
    10 :    -0.0001   -0.0038   -0.0240    0.3847   -0.0000    0.0004    0.0000    0.0025   -0.0242    0.5839



 =================================================
 H I R S H F E L D   C H A R G E   A N A L Y S I S
 =================================================
  
 For each fragment: the (numerical) integral of rho(scf) * rho(fragment)/rho(sum-of-fragments)
 (nuclear charges are included, electrons are counted negative)

 The fragments and their ordering are defined in the early G E O M E T R Y output section.
 If you use single-atom fragments, this usually implies that all atoms of the same
 chemical type are grouped together. This may not be the order in which you listed them
 in the input file!

    1  C                        -0.0546
    2  C                        -0.0252
    3  C                        -0.0252
    4  C                        -0.0546
    5  H                         0.0282
    6  H                         0.0276
    7  H                         0.0240
    8  H                         0.0240
    9  H                         0.0282
   10  H                         0.0276

 Sum of these charges (accuracy NumInt/Tails) =          -0.00000179



 =============================
 V O R O N O I   C H A R G E S
 =============================
  
 For each atom: the (numerical) integral of the total electronic charge density in its Voronoi cell,
 i.e. the region of space that is closer to that atom than to any other atom.
 (cf. Wigner-Seitz cells in crystals)

 Within the Voronoi cell the subintegrals over the atomic sphere and the remaining part are evaluated
 separately to give the numbers of electrons (negative charge) in these regions.
 The net total charge in the cell (including the nuclear charge) is also given.

 Values are provided for
    a) the Initial (sum-of-fragments) density
    b) the Orthogonalized-Fragments density
    c) the SCF density
    d) the Voronoi Deformation Density (VDD): the difference SCF-Initial for the complete atomic cell


  Atom                Initial                    OrthFrag                   SCF
             Sphere RestCell NetTotal   Sphere RestCell NetTotal   Sphere RestCell NetTotal      VDD
 -----       ------------------------   ------------------------   ------------------------    -----
    1 C      -2.187   -2.953    0.860   -2.268   -3.058    0.673   -2.160   -2.958    0.883    0.022
    2 C      -2.187   -3.373    0.440   -2.276   -3.379    0.345   -2.156   -3.389    0.456    0.016
    3 C      -2.187   -3.373    0.440   -2.276   -3.379    0.345   -2.156   -3.389    0.456    0.016
    4 C      -2.187   -2.953    0.860   -2.268   -3.058    0.673   -2.160   -2.958    0.883    0.022
    5 H      -0.148   -1.280   -0.429   -0.178   -1.159   -0.337   -0.135   -1.305   -0.440   -0.011
    6 H      -0.148   -1.285   -0.434   -0.179   -1.160   -0.339   -0.135   -1.310   -0.445   -0.011
    7 H      -0.148   -1.290   -0.438   -0.178   -1.164   -0.342   -0.136   -1.318   -0.453   -0.015
    8 H      -0.148   -1.290   -0.438   -0.178   -1.164   -0.342   -0.136   -1.318   -0.453   -0.015
    9 H      -0.148   -1.280   -0.429   -0.178   -1.159   -0.337   -0.135   -1.305   -0.440   -0.011
   10 H      -0.148   -1.285   -0.434   -0.179   -1.160   -0.339   -0.135   -1.310   -0.445   -0.011
 ---------------------------------------------------------------------------------------------------
 Total NetCharge:              -0.000                     -0.000                     -0.000    0.000
 (accuracy NumInt/Tails)

 Remark: the 'NetTotal' Voronoi charges often do not match the Mulliken and/or Hirshfeld charges very
 well. This is caused by the fact that chemically different atoms are not treated in accordance with
 their relative sizes. (Voronoi cells are defined by boundary planes halfway between the atoms.)
 However, the CHANGES in charge, comparing 'Initial' to 'SCF' for instance, do give a fair indication
 of the flow of charge caused by the relaxation from sum-of-fragments to self-consistency.

 Warning: the absolute accuracy of the VDD charges obtained using the Fuzzy Cells (Becke) integration
 scheme is much poorer than the one obtained with an 'equivalent' Voronoi integration grid. 



 =================================================================
 M U L T I P O L E   D E R I V E D   C H A R G E   A N A L Y S I S
 =================================================================

 This charge analysis uses the atomic multipoles (obtained from the fitted density) up to some level X,
 and reconstructs these multipoles exactly (up to level X) by distributing charges over all atoms.
 This is achieved by using Lagrange multipliers and a weight function to keep the multipoles local.

 Dummy atoms can be included (by setting INCDUM in MDC-block to 1) to obtain a fractional charge.
 This is generally useful and necessary only for small symmetrical molecules, when there are not
 enough degrees of freedom to reconstruct the multipoles.

 Since the atomic multipoles are reconstructed up to level X,
 the molecular multipoles are represented also up to level X.
 The recommended level is to reconstruct up to quadrupole : -> MDC-q charges.

 See: M. Swart, P.Th. van Duijnen, J.G. Snijders, J.Comput.Chem., (2001), p. 79-88.

 ------------------------------------------------------------- 
 Atomic electronic multipole moments from SCF equations (a.u.)
 ------------------------------------------------------------- 

   atom        charge        dip-x     dip-y     dip-z      quad-xx   quad-xy   quad-xz   quad-yy   quad-yz   quad-zz
 --------------------------------------------------------------------------------------------------------------------
    1 C      0.105379    -0.000000 -0.061294  0.074074    -0.615968  0.000000  0.000000  0.292637 -0.003697  0.323331
    2 C      0.056602    -0.000000 -0.034457 -0.091816    -0.595593 -0.000000 -0.000000  0.269025 -0.035206  0.326568
    3 C      0.056602    -0.000000  0.034457 -0.091816    -0.595592  0.000000  0.000000  0.269025  0.035206  0.326568
    4 C      0.105378     0.000000  0.061294  0.074074    -0.615969  0.000000 -0.000000  0.292637  0.003697  0.323332
    5 H     -0.052160    -0.000000 -0.031635 -0.004617    -0.095039  0.000000 -0.000000  0.164719  0.018719 -0.069680
    6 H     -0.052552    -0.000000  0.012742  0.029082    -0.095267  0.000000  0.000000 -0.040240  0.053472  0.135507
    7 H     -0.057270    -0.000000 -0.012673 -0.028785    -0.096570  0.000000  0.000000 -0.024337  0.057816  0.120907
    8 H     -0.057270    -0.000000  0.012673 -0.028785    -0.096570  0.000000  0.000000 -0.024337 -0.057816  0.120907
    9 H     -0.052160    -0.000000  0.031635 -0.004617    -0.095039 -0.000000 -0.000000  0.164719 -0.018719 -0.069680
   10 H     -0.052552    -0.000000 -0.012742  0.029082    -0.095267 -0.000000  0.000000 -0.040240 -0.053472  0.135507

 --------------------------------------- 
 Multipole derived atomic charges (a.u.)
 --------------------------------------- 

 The MDC-m charges are just the Monopole terms in the multipole expansion, while for the MDC-d charges
 also the Dipoles are reconstructed. The usually preferred charges are the MDC-q charges.
 These reconstruct the Monopoles, Dipoles and Quadrupoles (both atomic AND molecular).

        Atom    Level:     MDC-m        MDC-d        MDC-q
 ---------------------------------------------------------
     1     C            0.105379     0.054967    -0.192823
     2     C            0.056602     0.006516    -0.087408
     3     C            0.056602     0.006516    -0.087407
     4     C            0.105378     0.054966    -0.192824
     5     H           -0.052160    -0.020355     0.089830
     6     H           -0.052552    -0.026555     0.099781
     7     H           -0.057270    -0.014573     0.090620
     8     H           -0.057270    -0.014573     0.090620
     9     H           -0.052160    -0.020355     0.089830
    10     H           -0.052552    -0.026555     0.099781

 ------------------------------------------------ 
 Average absolute deviations in atomic multipoles
 ------------------------------------------------ 

 Stated here are the average differences between the atomic multipoles
 and the reconstructed atomic multipoles (from the distributed charges).
 If these values are not zero, this means there are not enough degrees of freedom,
 to be able to reconstruct the atomic multipoles. (This usually happens only
 for small and/or highly symmetric molecules). If this is the case, one could add
 dummy atoms as extra point charges (and setting INCDUM in MDC-block to 1).

 Level:                                 MDC-d        MDC-q
 ---------------------------------------------------------
 Charge   (a.u.)                       0.0000       0.0000
 Dipole   (Debye)                      0.0000       0.0000
 Quad.    (a.u.)                       0.1362       0.0000

 --------------------------------------- 
 Represented molecular multipole moments
 --------------------------------------- 

 Given here are the Molecular multipole moments from the atomic charges, and from the Fit Density.
 Note that the atomic charges represent the latter, NOT the ones from the Exact density.

            Q (a.u.)             Dipole moment (Debye)                                          Quadrupole moment (a.u.)
                                 x         y         z              xx        xy        xz        yy        yz        zz
------------------------------------------------------------------------------------------------------------------------
MDC-m        -0.0000       -0.0000   -0.0000    0.0954          1.6619   -0.0000   -0.0000   -0.8631   -0.0000   -0.7987
MDC-d        -0.0000       -0.0000   -0.0000   -0.0167          0.5341   -0.0000   -0.0000   -0.1517   -0.0000   -0.3824
MDC-q        -0.0000       -0.0000   -0.0000   -0.0167         -2.7906    0.0000   -0.0000    1.3362   -0.0000    1.4544
 
Fit.Dens.    -0.0000       -0.0000   -0.0000   -0.0167         -2.7906   -0.0000   -0.0000    1.3362   -0.0000    1.4544



 =============
 Dipole Moment  ***  (Debye)  ***
 =============
  
 Vector   :         0.00000000     -0.00000336     -0.01615777
 Magnitude:         0.01615777

 This molecular dipole moment is calculated with analytic integration



 =========================================
 Quadrupole Moment (Buckingham convention)  ***  (a.u.)  ***
 =========================================
  
      quad-xx        quad-xy        quad-xz        quad-yy        quad-yz        quad-zz
     -2.79225866    -0.00000000    -0.00000000     1.33735778    -0.00000350     1.45490088

 This molecular quadrupole moment is calculated with analytic integration
1



 ===========================
 B O N D I N G   E N E R G Y  ***  (decomposition)  ***
 ===========================
  
*** IMPORTANT NOTE ***

The bond energy is computed as an energy difference between molecule and
fragments. In particular when the fragments are single atoms, they are usually
computed as SPHERICALLY SYMMETRIC and SPIN-RESTRICTED. Obviously, this usually
does NOT represent the true atomic groundstate.

To obtain the 'real' bond energy, (atomic) correction terms must be applied
for the true (multiplet) fragment ground state. See ref: E.J.Baerends,
V.Branchadell, M.Sodupe, Chem.Phys.Lett.265 (1997) 481

General theoretical background on the bond energy decomposition scheme used
here (Morokuma-Ziegler) can be found in the review paper:
F.M. Bickelhaupt and E.J. Baerends,
"Kohn-Sham Density Functional Theory: Predicting and Understanding Chemistry"
In: Rev. Comput. Chem.; Lipkowitz, K. B. and Boyd, D. B., Eds.;
Wiley-VCH: New York, 2000, Vol. 15, 1-86.

Symbols used in the Bickelhaupt-Baerends (BB) paper are given below to make
the direct connection to that paper, where detailed explanations can be found
on the meaning of the various terms.


                                                   hartree              eV         kcal/mol           kJ/mol
                                      --------------------     -----------       ----------      -----------

Pauli Repulsion
  Kinetic (Delta T^0):                  14.248613126282571        387.7245          8941.14         37409.73
  Delta V^Pauli Coulomb:                -5.852062150606478       -159.2427         -3672.22        -15364.59
  Delta V^Pauli LDA-XC:                 -1.605338425673703        -43.6835         -1007.37         -4214.82
  Delta V^Pauli GGA-Exchange:            0.185995136452250          5.0612           116.71           488.33
  Delta V^Pauli GGA-Correlation:        -0.144035481401108         -3.9194           -90.38          -378.17
                                      --------------------     -----------       ----------      -----------
  Total Pauli Repulsion:                 6.833172205053529        185.9401          4287.88         17940.49
 (Total Pauli Repulsion =
  Delta E^Pauli in BB paper)

Steric Interaction
  Pauli Repulsion (Delta E^Pauli):       6.833172205053529        185.9401          4287.88         17940.49
  Electrostatic Interaction:            -1.104909221558448        -30.0661          -693.34         -2900.94
 (Electrostatic Interaction =
  Delta V_elstat in the BB paper)
                                      --------------------     -----------       ----------      -----------
  Total Steric Interaction:              5.728262983495081        155.8740          3594.54         15039.55
 (Total Steric Interaction =
  Delta E^0 in the BB paper)

Orbital Interactions
  A:                                    -8.140793184855863       -221.5223         -5108.43        -21373.65
                                      --------------------     -----------       ----------      -----------
  Total Orbital Interactions:           -8.140793184855863       -221.5223         -5108.43        -21373.65

Alternative Decomposition Orb.Int.
  Kinetic:                             -19.283304196502193       -524.7254        -12100.46        -50628.31
  Coulomb:                              10.153353821681650        276.2868          6371.33         26657.63
  XC:                                    0.989157189964682         26.9163           620.71          2597.03
                                      --------------------     -----------       ----------      -----------
  Total Orbital Interactions:           -8.140793184855861       -221.5223         -5108.43        -21373.65

  Residu (E=Steric+OrbInt+Res):         -0.000003570529314         -0.0001            -0.00            -0.01

Total Bonding Energy:                   -2.412533771890095        -65.6484         -1513.89         -6334.11


Summary of Bonding Energy (energy terms are taken from the energy decomposition above)
======================================================================================

  Electrostatic Energy:                 -1.104909221558448        -30.0661          -693.34         -2900.94
  Kinetic Energy:                       -5.034691070219623       -137.0009         -3159.32        -13218.58
  Coulomb (Steric+OrbInt) Energy:        4.301288100545857        117.0440          2699.10         11293.03
  XC Energy:                            -0.574221580657879        -15.6254          -360.33         -1507.62
                                      --------------------     -----------       ----------      -----------
  Total Bonding Energy:                 -2.412533771890092        -65.6484         -1513.89         -6334.11


Correction terms (incorporated in energies above; only for test purposes):

1. Indication of fit-quality: 1st-order fit-correction used in the energy (hartree):  -0.0000754653
2. Electrostatic (Fit correction):   0.0000000000

Scaled ZORA energy correction, not included in bonding energy (hartree):           -0.0001402673
 NOTE: This scaled ZORA energy correction should only be used to compare two calculations
 in which the only difference in the calculation is the electron configuration.
 Then the difference in energy of this term should be added to the difference in energy of
 the two electron configurations.
 This term should not be used otherwise.
 In practice it is useful only for core excitation energy calculations.



 =========================================
 F R A G M E N T   E N E R G Y   T E R M S  ***  (summed over all fragments)  ***
 =========================================
  

The energy terms below are (parts of) the Total Energy of the fragments from which the molecule
 is built.

Exchange and Correlation
  Exchange LDA:                        -19.861025936487273       -540.4460        -12462.98        -52145.12
  Exchange GGA:                         -2.698658941720466        -73.4342         -1693.43         -7085.33
  Correlation LDA:                       0.000000000000000          0.0000             0.00             0.00
  Correlation GGA:                      -0.806230470312459        -21.9386          -505.92         -2116.76
                                      --------------------     -----------       ----------      -----------
  Total XC:                            -23.365915348520200       -635.8189        -14662.33        -61347.20
1



 =======================================================
 S F O   P O P U L A T I O N S ,   M O   A N A L Y S I S
 =======================================================
  
 A Mulliken population analysis is performed on (input-)selected MOs. All populations refer to SFOs.
 BAS populations may have been printed directly after the SCF part.


                                       === A ===


 SFO contributions (%) per orbital
 (multiplication by the orbital occupation yields the SFO Gross Populations)

 Orb.:        6      7      8      9     10     11     12     13     14     15     16     17     18     19
 occup:     2.00   2.00   2.00   2.00   2.00   2.00   2.00   2.00   2.00   2.00   0.00   0.00   0.00   0.00
 CF+SFO     ----   ----   ----   ----   ----   ----   ----   ----   ----   ----   ----   ----   ----   ----
 ------
      2:   24.24  15.05   5.53   0.18   0.02   0.03   0.19   0.01   0.00   0.00  -0.00   0.00   0.32   0.92
      3:    0.00   0.00   0.00   0.00   0.00   0.00   0.00   0.00  16.06  34.01  33.94  15.99   0.00   0.00
      4:    0.10   0.77   1.60  12.84   1.56  23.38  -0.00   8.34   0.00   0.00   0.00   0.00   3.61   5.14
      5:    0.89   1.42   9.61   2.37  18.44   0.82  14.07   0.63   0.00   0.00   0.00   0.00   2.25   3.81
      7:   11.03   8.21   9.63   0.05   0.01   0.46   0.34   0.34  -0.00  -0.00   0.00   0.00   3.02   7.16
      8:    0.00   0.00  -0.00   0.00   0.00   0.00   0.00   0.00  33.94  15.99  16.06  34.01   0.00   0.00
      9:    4.37   4.83   2.87   8.24   8.24   0.03   0.06  17.98   0.00   0.00   0.00   0.00   1.14  15.90
     10:    1.03   5.33   1.92   9.67  10.26   5.05  13.62   1.81   0.00   0.00   0.00   0.00   9.17   1.35
     12:   11.03   8.21   9.63   0.05   0.01   0.46   0.34   0.34  -0.00   0.00   0.00   0.00   3.02   7.16
     13:    0.00   0.00   0.00   0.00   0.00   0.00   0.00   0.00  33.94  15.99  16.06  34.01   0.00   0.00
     14:    4.37   4.83   2.87   8.24   8.24   0.03   0.06  17.98   0.00   0.00   0.00   0.00   1.14  15.90
     15:    1.03   5.33   1.92   9.67  10.26   5.05  13.62   1.81   0.00   0.00  -0.00   0.00   9.17   1.35
     17:   24.24  15.05   5.53   0.18   0.02   0.03   0.19   0.01   0.00  -0.00   0.00  -0.00   0.32   0.92
     18:    0.00   0.00   0.00   0.00   0.00   0.00   0.00   0.00  16.06  34.01  33.94  15.99   0.00   0.00
     19:    0.10   0.77   1.60  12.84   1.56  23.38  -0.00   8.34   0.00   0.00  -0.00   0.00   3.61   5.14
     20:    0.89   1.42   9.61   2.37  18.44   0.82  14.07   0.63   0.00   0.00   0.00   0.00   2.25   3.81
     21:    3.76   5.03   3.47   7.39   0.54  14.96   0.63   8.95   0.00  -0.00  -0.00   0.00   6.12  11.31
     22:    2.79   5.56   7.10   2.67   9.29   3.75   8.43   4.94  -0.00  -0.00  -0.00   0.00   3.02   3.99
     23:    1.80   3.80   8.28   6.59   1.64   1.52  12.67   7.00   0.00  -0.00   0.00   0.00  21.35   0.45
     24:    1.80   3.80   8.28   6.59   1.64   1.52  12.67   7.00   0.00  -0.00   0.00  -0.00  21.35   0.45
     25:    3.76   5.03   3.47   7.39   0.54  14.96   0.63   8.95   0.00  -0.00   0.00  -0.00   6.12  11.31
     26:    2.79   5.56   7.10   2.67   9.29   3.75   8.43   4.94   0.00   0.00   0.00   0.00   3.02   3.99


 Summation over all MOs, multiplied by occupation: Total SFO Gross Populations in this Irrep
 ===========================================================================================

     2.00    1.18    1.00    0.99    0.98    2.00    1.16    1.00    0.94    0.98    2.00    1.16
     1.00    0.94    0.98    2.00    1.18    1.00    0.99    0.98    0.92    0.92    0.92    0.92
     0.92    0.92



 List of all MOs, ordered by energy, with the most significant SFO gross populations
 ===================================================================================

 Each percentage contribution in the table below corres ponds to the indicated SFO.
 In general, a SFO may be a linear combination of several Fragment Orbitals on the same,
 or on symmetry-related Fragments. Only the first 'member' of such a combination is
 specified here. A full definition of all SFOs is given in an earlier part of the output.
 The numbering of the SFOs in this table does NOT include the Core Orbitals, and starts
 from one for each symmetry representation, as in the SFO definition list earlier.

       E(eV)  Occ       MO           %     SFO (first member)   E(eV)  Occ   Fragment
 -------------------------------------------------------------------------------------

     -18.572  2.00     5 A         28.00%     2 S             -10.106  2.00     3 C
                                   28.00%     2 S             -10.106  2.00     2 C
                                   13.83%     2 S             -10.106  2.00     4 C
                                   13.83%     2 S             -10.106  2.00     1 C
                                    2.75%     1 S              -3.265  1.00     8 H
                                    2.75%     1 S              -3.265  1.00     7 H
                                    1.49%     1 S              -3.265  1.00    10 H
                                    1.49%     1 S              -3.265  1.00     6 H
                                    1.21%     1 S              -3.265  1.00     9 H
                                    1.21%     1 S              -3.265  1.00     5 H
                                    1.03%     1 P:z            -0.653  0.67     4 C
                                    1.03%     1 P:z            -0.653  0.67     1 C
     -16.812  2.00     6 A         24.24%     2 S             -10.106  2.00     4 C
                                   24.24%     2 S             -10.106  2.00     1 C
                                   11.03%     2 S             -10.106  2.00     2 C
                                   11.03%     2 S             -10.106  2.00     3 C
                                    4.37%     1 P:y            -0.653  0.67     3 C
                                    4.37%     1 P:y            -0.653  0.67     2 C
                                    3.76%     1 S              -3.265  1.00     9 H
                                    3.76%     1 S              -3.265  1.00     5 H
                                    2.79%     1 S              -3.265  1.00    10 H
                                    2.79%     1 S              -3.265  1.00     6 H
                                    1.80%     1 S              -3.265  1.00     7 H
                                    1.80%     1 S              -3.265  1.00     8 H
                                    1.03%     1 P:z            -0.653  0.67     3 C
                                    1.03%     1 P:z            -0.653  0.67     2 C
     -14.143  2.00     7 A         15.05%     2 S             -10.106  2.00     1 C
                                   15.05%     2 S             -10.106  2.00     4 C
                                    8.21%     2 S             -10.106  2.00     3 C
                                    8.21%     2 S             -10.106  2.00     2 C
                                    5.56%     1 S              -3.265  1.00    10 H
                                    5.56%     1 S              -3.265  1.00     6 H
                                    5.33%     1 P:z            -0.653  0.67     2 C
                                    5.33%     1 P:z            -0.653  0.67     3 C
                                    5.03%     1 S              -3.265  1.00     5 H
                                    5.03%     1 S              -3.265  1.00     9 H
                                    4.83%     1 P:y            -0.653  0.67     2 C
                                    4.83%     1 P:y            -0.653  0.67     3 C
                                    3.80%     1 S              -3.265  1.00     8 H
                                    3.80%     1 S              -3.265  1.00     7 H
                                    1.42%     1 P:z            -0.653  0.67     4 C
                                    1.42%     1 P:z            -0.653  0.67     1 C
     -11.892  2.00     8 A          9.63%     2 S             -10.106  2.00     2 C
                                    9.63%     2 S             -10.106  2.00     3 C
                                    9.61%     1 P:z            -0.653  0.67     4 C
                                    9.61%     1 P:z            -0.653  0.67     1 C
                                    8.28%     1 S              -3.265  1.00     7 H
                                    8.28%     1 S              -3.265  1.00     8 H
                                    7.10%     1 S              -3.265  1.00     6 H
                                    7.10%     1 S              -3.265  1.00    10 H
                                    5.53%     2 S             -10.106  2.00     1 C
                                    5.53%     2 S             -10.106  2.00     4 C
                                    3.47%     1 S              -3.265  1.00     5 H
                                    3.47%     1 S              -3.265  1.00     9 H
                                    2.87%     1 P:y            -0.653  0.67     3 C
                                    2.87%     1 P:y            -0.653  0.67     2 C
                                    1.92%     1 P:z            -0.653  0.67     2 C
                                    1.92%     1 P:z            -0.653  0.67     3 C
                                    1.60%     1 P:y            -0.653  0.67     4 C
                                    1.60%     1 P:y            -0.653  0.67     1 C
     -10.759  2.00     9 A         12.84%     1 P:y            -0.653  0.67     4 C
                                   12.84%     1 P:y            -0.653  0.67     1 C
                                    9.67%     1 P:z            -0.653  0.67     3 C
                                    9.67%     1 P:z            -0.653  0.67     2 C
                                    8.24%     1 P:y            -0.653  0.67     3 C
                                    8.24%     1 P:y            -0.653  0.67     2 C
                                    7.39%     1 S              -3.265  1.00     9 H
                                    7.39%     1 S              -3.265  1.00     5 H
                                    6.59%     1 S              -3.265  1.00     8 H
                                    6.59%     1 S              -3.265  1.00     7 H
                                    2.67%     1 S              -3.265  1.00    10 H
                                    2.67%     1 S              -3.265  1.00     6 H
                                    2.37%     1 P:z            -0.653  0.67     4 C
                                    2.37%     1 P:z            -0.653  0.67     1 C
      -9.338  2.00    10 A         18.44%     1 P:z            -0.653  0.67     4 C
                                   18.44%     1 P:z            -0.653  0.67     1 C
                                   10.26%     1 P:z            -0.653  0.67     3 C
                                   10.26%     1 P:z            -0.653  0.67     2 C
                                    9.29%     1 S              -3.265  1.00    10 H
                                    9.29%     1 S              -3.265  1.00     6 H
                                    8.24%     1 P:y            -0.653  0.67     2 C
                                    8.24%     1 P:y            -0.653  0.67     3 C
                                    1.64%     1 S              -3.265  1.00     8 H
                                    1.64%     1 S              -3.265  1.00     7 H
                                    1.56%     1 P:y            -0.653  0.67     1 C
                                    1.56%     1 P:y            -0.653  0.67     4 C
      -8.962  2.00    11 A         23.38%     1 P:y            -0.653  0.67     1 C
                                   23.38%     1 P:y            -0.653  0.67     4 C
                                   14.96%     1 S              -3.265  1.00     5 H
                                   14.96%     1 S              -3.265  1.00     9 H
                                    5.05%     1 P:z            -0.653  0.67     2 C
                                    5.05%     1 P:z            -0.653  0.67     3 C
                                    3.75%     1 S              -3.265  1.00    10 H
                                    3.75%     1 S              -3.265  1.00     6 H
                                    1.52%     1 S              -3.265  1.00     7 H
                                    1.52%     1 S              -3.265  1.00     8 H
      -7.487  2.00    12 A         14.07%     1 P:z            -0.653  0.67     1 C
                                   14.07%     1 P:z            -0.653  0.67     4 C
                                   13.62%     1 P:z            -0.653  0.67     3 C
                                   13.62%     1 P:z            -0.653  0.67     2 C
                                   12.67%     1 S              -3.265  1.00     8 H
                                   12.67%     1 S              -3.265  1.00     7 H
                                    8.43%     1 S              -3.265  1.00     6 H
                                    8.43%     1 S              -3.265  1.00    10 H
      -7.117  2.00    13 A         17.98%     1 P:y            -0.653  0.67     3 C
                                   17.98%     1 P:y            -0.653  0.67     2 C
                                    8.95%     1 S              -3.265  1.00     5 H
                                    8.95%     1 S              -3.265  1.00     9 H
                                    8.34%     1 P:y            -0.653  0.67     1 C
                                    8.34%     1 P:y            -0.653  0.67     4 C
                                    7.00%     1 S              -3.265  1.00     7 H
                                    7.00%     1 S              -3.265  1.00     8 H
                                    4.94%     1 S              -3.265  1.00     6 H
                                    4.94%     1 S              -3.265  1.00    10 H
                                    1.81%     1 P:z            -0.653  0.67     2 C
                                    1.81%     1 P:z            -0.653  0.67     3 C
      -6.088  2.00    14 A         33.94%     1 P:x            -0.653  0.67     3 C
                                   33.94%     1 P:x            -0.653  0.67     2 C
                                   16.06%     1 P:x            -0.653  0.67     4 C
                                   16.06%     1 P:x            -0.653  0.67     1 C
      -3.799  2.00    15 A         34.01%     1 P:x            -0.653  0.67     4 C
                                   34.01%     1 P:x            -0.653  0.67     1 C
                                   15.99%     1 P:x            -0.653  0.67     2 C
                                   15.99%     1 P:x            -0.653  0.67     3 C
       0.672  0.00    16 A         33.94%     1 P:x            -0.653  0.67     1 C
                                   33.94%     1 P:x            -0.653  0.67     4 C
                                   16.06%     1 P:x            -0.653  0.67     3 C
                                   16.06%     1 P:x            -0.653  0.67     2 C
       3.930  0.00    17 A         34.01%     1 P:x            -0.653  0.67     2 C
                                   34.01%     1 P:x            -0.653  0.67     3 C
                                   15.99%     1 P:x            -0.653  0.67     1 C
                                   15.99%     1 P:x            -0.653  0.67     4 C

 Energy gradients wrt nuclear displacements
 ==========================================

     Atom      Cartesian (a.u./angstrom)
                 X         Y         Z
 ----------------------------------------
     1 C     0.000000  0.000266 -0.000370
     2 C     0.000000  0.000774  0.000199
     3 C    -0.000000 -0.000774  0.000200
     4 C    -0.000000 -0.000265 -0.000370
     5 H    -0.000000 -0.000153  0.000004
     6 H    -0.000000 -0.000046  0.000253
     7 H     0.000000 -0.000184 -0.000087
     8 H    -0.000000  0.000184 -0.000087
     9 H    -0.000000  0.000153  0.000004
    10 H     0.000000  0.000046  0.000253
 ----------------------------------------



 =======================================================================
 Electrostatic potential at the Nuclei due to electrons and other nuclei
 =======================================================================
  
         Atom                  Potential
         ----                  ---------
     1)   C                  14.76013058
     2)   C                  14.74449774
     3)   C                  14.74449755
     4)   C                  14.76013109
     5)   H                   1.14788696
     6)   H                   1.14872744
     7)   H                   1.15391551
     8)   H                   1.15391549
     9)   H                   1.14788709
    10)   H                   1.14872755
 Mulliken charges used for AMS results%charges...


    =====================
     CALCULATION RESULTS
    =====================

Energy (hartree)            -2.41253377

Gradients (hartree/bohr)
  Index   Atom            d/dx            d/dy            d/dz
      1      C    0.0000000000    0.0001406828   -0.0001955517
      2      C    0.0000000000    0.0004093949    0.0001054989
      3      C   -0.0000000000   -0.0004097504    0.0001057671
      4      C   -0.0000000000   -0.0001402807   -0.0001957516
      5      H   -0.0000000000   -0.0000809880    0.0000022054
      6      H   -0.0000000000   -0.0000245001    0.0001339170
      7      H    0.0000000000   -0.0000974659   -0.0000460913
      8      H   -0.0000000000    0.0000974670   -0.0000461233
      9      H   -0.0000000000    0.0000809252    0.0000022072
     10      H    0.0000000000    0.0000245153    0.0001339223


--------------
Atomic charges
--------------
  Index   Atom    Charge
      1      C   -0.1604
      2      C   -0.0824
      3      C   -0.0824
      4      C   -0.1604
      5      H    0.0822
      6      H    0.0806
      7      H    0.0800
      8      H    0.0800
      9      H    0.0822
     10      H    0.0806


Dipole moment vector    (Debye):     0.00000000   -0.00000336   -0.01615777
              magnitude (Debye):     0.01615777


AMS application finished. Exiting.
NORMAL TERMINATION
     Total cpu time:      43.26
  Total system time:      17.50
 Total elapsed time:      69.75
