

 Parallel Execution: Process Information
 ==============================================================================
 Rank   Node Name                              NodeID   MyNodeRank  NodeMaster
    0   yumans-mbp.home                           0          0          0
    1   yumans-mbp.home                           0          1         -1
    2   yumans-mbp.home                           0          2         -1
    3   yumans-mbp.home                           0          3         -1
    4   yumans-mbp.home                           0          4         -1
    5   yumans-mbp.home                           0          5         -1
    6   yumans-mbp.home                           0          6         -1
    7   yumans-mbp.home                           0          7         -1
    8   yumans-mbp.home                           0          8         -1
    9   yumans-mbp.home                           0          9         -1
 ==============================================================================


May use up to 15625MB of RAM as shared memory on node 0

 *******************************************************************************
 *                                                                             *
 *  --------------------------------                                           *
 *   Amsterdam Modeling Suite (AMS)              2022.103                      *
 *  --------------------------------                                           *
 *                                               r104886 2022-06-17            *
 *                                                                             *
 *                                                                             *
 *                              =================                              *
 *                              |               |                              *
 *                              |     A M S     |                              *
 *                              |               |                              *
 *                              =================                              *
 *                                                                             *
 *                                                                             *
 *   Online information and documentation:  https://www.scm.com/support/       *
 *   E-mail:  support@scm.com   info@scm.com                                   *
 *                                                                             *
 *   Scientific publications using AMS results must be properly referenced     *
 *   See the User Manuals (or the web site) for recommended citations          *
 *   The terms and conditions of the End User License Agreement apply to       *
 *   the use of AMS, https://www.scm.com/license-terms/                        *
 *                                                                             *
 **********************  x86_64_darwin_intel / openmpi  ************************
 
 Licensed to: Prof Visscher, Prof Bickelhaupt, Prof Fonseca Guerra / Vrije Universiteit, Theoretische Chemie / Amsterdam / NETHERLANDS 2022-12-13 09:59:29
 SCM User ID: u21794
  
 AMS 2022.103  RunTime: Sep26-2023 18:34:49  ShM Nodes: 1  Procs: 10

 AMS jobname: ams
 AMS jobid  : 1277749657

 Start   directory: /Users/yumanhordijk/PhD/pi_rotation/MeMe_ADF_distance/6/tmp.yumanhordijk.23261.0.noindex/
 Results directory: /Users/yumanhordijk/PhD/pi_rotation/MeMe_ADF_distance/6/sp.Me1.results/
 Scratch directory: /tmp/amstmp_ams_kid0.1277749657/


 Communication costs MPI_COMM_WORLD:      2.100 usec per message,   0.0396 usec per 8-byte item
 Communication costs for intra-node:      2.468 usec per message,   0.0328 usec per 8-byte item

 RNG seed: -1702626388 867510022 -977818717 -1622239357 1501766137 -1989516191 -1685947471 -1209886638



                     *************************************************************************
                     *  ADF 2022.103  RunTime: Sep26-2023 18:34:51  ShM Nodes: 1  Procs: 10  *
                     *************************************************************************
  
 Geometry symmetrized to: Dh
 Geometry reoriented with symmetry: D(3H)
       ****************************
       * SINGLE POINT CALCULATION *
       ****************************
 
--------
Geometry
--------
Formula: CH3
Atoms
  Index Symbol   x (angstrom)   y (angstrom)   z (angstrom)
      1      C     0.00000000     0.00000000     0.00000000       region=Me1
      2      H     0.53644704    -0.92915353     0.00000000       region=Me1
      3      H     0.53644704     0.92915353     0.00000000       region=Me1
      4      H    -1.07289408     0.00000000     0.00000000       region=Me1
 
Total System Charge             0.00000
Bonding info available!
 
 
----------------
ADF Engine Input
----------------
 
 Basis
 Type TZ2P
 Core None
 End
 SpinPolarization 1
 ALLOW  FRACTIONAL
 XC
 GGA OLYP
 End
 Title Me1 fragment
 Symmetry NOSYM
 Unrestricted Yes
 

 Title: Me1 fragment

 *** adf ***



 ===========================
 A T T A C H E D   F I L E S
 ===========================
  



 ===============================
 M O D E L   P A R A M E T E R S
 ===============================
  
 DENSITY FUNCTIONAL POTENTIAL (scf)
    LDA:                               Exchange only                           == Not Default ==
    Gradient Corrections:              OPTX LYP                                == Not Default ==

 SPIN  (restricted / unrestr.)
    Molecule:                          UNrestricted                            == Not Default ==
    Fragments:                         Restricted                               

 OTHER ASPECTS
    Relativistic Corrections:          scalar (ZORA,MAPA)                       

    Nuclear Charge Density Model:      Point Charge Nuclei                      
    Core Treatment:                    Frozen Orbital(s)                        

    Hyperfine or Zeeman Interaction:   ---                                      


 Fragment File(s)
 ----------------
 C:
         file : /Users/yumanhordijk/PhD/pi_rotation/MeMe_ADF_distance/6/sp.Me1.results/t21.5384E61.C
         jobid: 0
         title: Carbon (TZ2P)
 H:
         file : /Users/yumanhordijk/PhD/pi_rotation/MeMe_ADF_distance/6/sp.Me1.results/t21.4DC4E5D.H
         jobid: 0
         title: Hydrogen (TZ2P)



 ===============
 G E O M E T R Y  ***  Planar Molecule  ***
 ===============
  

 ATOMS
 =====                            X Y Z                    CHARGE
                                (Angstrom)             Nucl     +Core       At.Mass
                       --------------------------    ----------------       -------
    1  C               0.0000    0.0000    0.0000      6.00      6.00       12.0000
    2  H               0.5364   -0.9292    0.0000      1.00      1.00        1.0078
    3  H               0.5364    0.9292    0.0000      1.00      1.00        1.0078
    4  H              -1.0729    0.0000    0.0000      1.00      1.00        1.0078


 FRAGMENTS
 =========                                     Atoms in this Fragment     Cart. coord.s (Angstrom)
                                               -------------------------------------------------------
    1  C                                                 1  C            0.0000    0.0000    0.0000
    2  H                                                 2  H            0.5364   -0.9292    0.0000
    3  H                                                 3  H            0.5364    0.9292    0.0000
    4  H                                                 4  H           -1.0729    0.0000    0.0000


 Interatomic Distance Matrix (Angstrom)
 --------------------------------------

   1)     0.000
   2)     1.073   0.000
   3)     1.073   1.858   0.000
   4)     1.073   1.858   1.858   0.000

 Min. Distance =    1.0729
 Max. Distance =    1.8583



 =====================================
 S Y M M E T R Y ,   E L E C T R O N S
 =====================================
  
 Symmetry: NOSYM

 Irreducible Representations, including subspecies
 -------------------------------------------------
 A


 Configuration of Valence Electrons
 ==================================
 ( determined in the SCF procedure )

 Total:   5 (Spin-A)  + 4 (Spin-B)

 Net Charge: 0 (Nuclei minus Electrons)
 Spin polar: 1 (Spin_A minus Spin_B electrons)

 Aufbau principle for MO occupations will be applied through SCF cycle no.     150
 Thereafter, the program will assign electrons to MOs that are spatially
 similar to the occupied MOs in a "reference" cycle ("KeepOrbitals").
 The reference cycle is always the PREVIOUS cycle: it will evolve with
 the SCF procedure.
1
 ***************************************************************************************************



                                      ****************************************
                                      *  B U I L D : (Fragments, Functions)  *
                                      ****************************************
  



 =======
 S F O s  ***  (Symmetrized Fragment Orbitals)  ***
 =======
  
 SFOs are linear combinations of (valence) Fragment Orbitals (FOs), such that the SFOs transform as the
 irreducible representations of the (molecular) symmetry group. Each SFO is therefore characterized by
 an irrep of the molecule and by a few (or only one) generating FOs.
 The SFOs constitute a symmetry-adapted basis for the Fock matrix. The MO eigenvector coefficients in
 this basis provide a direct interpretation of the MOs in terms of Frontier Orbital Theory.

 The SFOs are combined with auxiliary Core Functions (CFs) to ensure orthogonalization on the (frozen)
 Core Orbitals (COs). The Core-orthogonalized SFOs (CSFOs) constitute the true Fock basis.

 The FOs, and hence also the (C)SFOs are combinations of the elementary basis functions (BAS). The basis
 functions that participate in the description of the SFOs depend on the irrep. The indices of the
 involved functions are printed below for each irrep.
 (The complete list of primitive basis functions is printed in another section)

 Total nr. of (C)SFOs (summation over all irreps) :    59

 NOTE: a (C)SFO that is defined as a combination of more than one FO is usually NOT normalized.



                                       === A ===
 Nr. of SFOs :   59
 Cartesian basis functions that participate in this irrep (total number =    66) :
      1     2     3     4     5     6     9    12     7    10
     13     8    11    14    15    16    17    18    19    20
     21    22    23    24    25    26    27    28    29    30
     31    32    33    34    35    36    37    38    39    40
     41    42    43    44    45    46    47    48    49    50
     51    52    53    54    55    56    57    58    59    60
     61    62    63    64    65    66

    SFO  (index         Fragment          Generating    Expansion in Fragment Orbitals
  indx  incl.CFs)   Occup   Orb.Energy   FragmentType  Coeff.   Orbital     on Fragment
 --------------------------------------------------------------------------------------
     1       1      2.000     -10.064 au  C             1.00      1 S               1
                        (    -273.865 eV)
     2       2      2.000      -0.507 au  C             1.00      2 S               1
                        (     -13.802 eV)
     3       3       --         0.384 au  C             1.00      3 S               1
                        (      10.456 eV)
     4       4       --         5.458 au  C             1.00      4 S               1
                        (     148.511 eV)
     5       5       --        49.970 au  C             1.00      5 S               1
                        (    1359.766 eV)
     6       6      0.667      -0.189 au  C             1.00      1 P:x             1
                        (      -5.135 eV)
     7       7       --         0.168 au  C             1.00      2 P:x             1
                        (       4.559 eV)
     8       8       --         2.056 au  C             1.00      3 P:x             1
                        (      55.959 eV)
     9       9      0.667      -0.189 au  C             1.00      1 P:y             1
                        (      -5.135 eV)
    10      10       --         0.168 au  C             1.00      2 P:y             1
                        (       4.559 eV)
    11      11       --         2.056 au  C             1.00      3 P:y             1
                        (      55.959 eV)
    12      12      0.667      -0.189 au  C             1.00      1 P:z             1
                        (      -5.135 eV)
    13      13       --         0.168 au  C             1.00      2 P:z             1
                        (       4.559 eV)
    14      14       --         2.056 au  C             1.00      3 P:z             1
                        (      55.959 eV)
    15      15       --         1.235 au  C             1.00      1 D:z2            1
                        (      33.605 eV)
    16      16       --         1.235 au  C             1.00      1 D:x2-y2         1
                        (      33.605 eV)
    17      17       --         1.235 au  C             1.00      1 D:xy            1
                        (      33.605 eV)
    18      18       --         1.235 au  C             1.00      1 D:xz            1
                        (      33.605 eV)
    19      19       --         1.235 au  C             1.00      1 D:yz            1
                        (      33.605 eV)
    20      20       --         4.005 au  C             1.00      1 F:z3            1
                        (     108.969 eV)
    21      21       --         4.005 au  C             1.00      1 F:z             1
                        (     108.969 eV)
    22      22       --         4.005 au  C             1.00      1 F:xyz           1
                        (     108.969 eV)
    23      23       --         4.005 au  C             1.00      1 F:z2x           1
                        (     108.969 eV)
    24      24       --         4.005 au  C             1.00      1 F:z2y           1
                        (     108.969 eV)
    25      25       --         4.005 au  C             1.00      1 F:x             1
                        (     108.969 eV)
    26      26       --         4.005 au  C             1.00      1 F:y             1
                        (     108.969 eV)
    27      27      1.000      -0.238 au  H             1.00      1 S               2
                        (      -6.484 eV)
    28      28       --         0.077 au  H             1.00      2 S               2
                        (       2.096 eV)
    29      29       --         1.521 au  H             1.00      3 S               2
                        (      41.380 eV)
    30      30       --         0.410 au  H             1.00      1 P:x             2
                        (      11.162 eV)
    31      31       --         0.410 au  H             1.00      1 P:y             2
                        (      11.162 eV)
    32      32       --         0.410 au  H             1.00      1 P:z             2
                        (      11.162 eV)
    33      33       --         2.567 au  H             1.00      1 D:z2            2
                        (      69.838 eV)
    34      34       --         2.567 au  H             1.00      1 D:x2-y2         2
                        (      69.838 eV)
    35      35       --         2.567 au  H             1.00      1 D:xy            2
                        (      69.838 eV)
    36      36       --         2.567 au  H             1.00      1 D:xz            2
                        (      69.838 eV)
    37      37       --         2.567 au  H             1.00      1 D:yz            2
                        (      69.838 eV)
    38      38      1.000      -0.238 au  H             1.00      1 S               3
                        (      -6.484 eV)
    39      39       --         0.077 au  H             1.00      2 S               3
                        (       2.096 eV)
    40      40       --         1.521 au  H             1.00      3 S               3
                        (      41.380 eV)
    41      41       --         0.410 au  H             1.00      1 P:x             3
                        (      11.162 eV)
    42      42       --         0.410 au  H             1.00      1 P:y             3
                        (      11.162 eV)
    43      43       --         0.410 au  H             1.00      1 P:z             3
                        (      11.162 eV)
    44      44       --         2.567 au  H             1.00      1 D:z2            3
                        (      69.838 eV)
    45      45       --         2.567 au  H             1.00      1 D:x2-y2         3
                        (      69.838 eV)
    46      46       --         2.567 au  H             1.00      1 D:xy            3
                        (      69.838 eV)
    47      47       --         2.567 au  H             1.00      1 D:xz            3
                        (      69.838 eV)
    48      48       --         2.567 au  H             1.00      1 D:yz            3
                        (      69.838 eV)
    49      49      1.000      -0.238 au  H             1.00      1 S               4
                        (      -6.484 eV)
    50      50       --         0.077 au  H             1.00      2 S               4
                        (       2.096 eV)
    51      51       --         1.521 au  H             1.00      3 S               4
                        (      41.380 eV)
    52      52       --         0.410 au  H             1.00      1 P:x             4
                        (      11.162 eV)
    53      53       --         0.410 au  H             1.00      1 P:y             4
                        (      11.162 eV)
    54      54       --         0.410 au  H             1.00      1 P:z             4
                        (      11.162 eV)
    55      55       --         2.567 au  H             1.00      1 D:z2            4
                        (      69.838 eV)
    56      56       --         2.567 au  H             1.00      1 D:x2-y2         4
                        (      69.838 eV)
    57      57       --         2.567 au  H             1.00      1 D:xy            4
                        (      69.838 eV)
    58      58       --         2.567 au  H             1.00      1 D:xz            4
                        (      69.838 eV)
    59      59       --         2.567 au  H             1.00      1 D:yz            4
                        (      69.838 eV)



 ================================
 (Slater-type)  F U N C T I O N S  ***  (Basis and Fit)  ***
 ================================
  

 Atom Type    1  (C)
 ==============

 Valence Basis Sets:  10
 -----------------------
   1 S    7.680000
   1 S    5.000000
   2 S    1.280000
   2 S    2.100000
   2 S    4.600000
   2 P    0.820000
   2 P    1.480000
   2 P    2.940000
   3 D    2.200000
   4 F    3.300000

 Atom Type    2  (H)
 ==============

 Valence Basis Sets:   5
 -----------------------
   1 S    0.690000
   1 S    0.920000
   1 S    1.580000
   2 P    1.250000
   3 D    2.500000


 BAS: List of all Elementary Cartesian Basis Functions
 =====================================================

 The numbering in the list below (to the right of the function characteristics) is referred
 to in print-outs of MO eigenvectors and Mulliken populations in the BAS representation
 (as contrasted to the SFO representation).

 Notes:
 1. The functions are characterized by a polynomial prefactor (powers of x,y,z and r) and
    an exponential decay factor alpha.
 2. Since the basis sets are specific for an atom TYPE, the individual functions occur on
    all atoms of that type.
 3. The word 'Core' in the left margin signals that it is a Core Function (CF) : not a
    degree of freedom in the valence set, but only used to ensure orthogonalization of
    the other valence basis functions on the frozen Core Orbitals.


 (power of) X  Y  Z  R     Alpha  on Atom
            ==========     =====     ==========

 C                                    1
                                  ---------------------------------------------------------------------------
            0  0  0  0     7.680      1
            0  0  0  0     5.000      2
            0  0  0  1     1.280      3
            0  0  0  1     2.100      4
            0  0  0  1     4.600      5
            1  0  0  0     0.820      6
            0  1  0  0     0.820      7
            0  0  1  0     0.820      8
            1  0  0  0     1.480      9
            0  1  0  0     1.480     10
            0  0  1  0     1.480     11
            1  0  0  0     2.940     12
            0  1  0  0     2.940     13
            0  0  1  0     2.940     14
            2  0  0  0     2.200     15
            1  1  0  0     2.200     16
            1  0  1  0     2.200     17
            0  2  0  0     2.200     18
            0  1  1  0     2.200     19
            0  0  2  0     2.200     20
            3  0  0  0     3.300     21
            2  1  0  0     3.300     22
            2  0  1  0     3.300     23
            1  2  0  0     3.300     24
            1  1  1  0     3.300     25
            1  0  2  0     3.300     26
            0  3  0  0     3.300     27
            0  2  1  0     3.300     28
            0  1  2  0     3.300     29
            0  0  3  0     3.300     30

 H                                    2    3    4
                                  ---------------------------------------------------------------------------
            0  0  0  0     0.690     31   43   55
            0  0  0  0     0.920     32   44   56
            0  0  0  0     1.580     33   45   57
            1  0  0  0     1.250     34   46   58
            0  1  0  0     1.250     35   47   59
            0  0  1  0     1.250     36   48   60
            2  0  0  0     2.500     37   49   61
            1  1  0  0     2.500     38   50   62
            1  0  1  0     2.500     39   51   63
            0  2  0  0     2.500     40   52   64
            0  1  1  0     2.500     41   53   65
            0  0  2  0     2.500     42   54   66

 Total number of charge fitting functions (nprimf)       234
 Total number of Cartesian basis functions (naos)         66
 Total number of Cartesian core functions  (ncos)          0

1
 ***************************************************************************************************



                                              ***********************
                                              *  T E C H N I C A L  *
                                              ***********************
  



 =============================================================
 P A R A L L E L I Z A T I O N  and  V E C T O R I Z A T I O N
 =============================================================
  
 Nr of parallel processes:                               10
 Maximum vector length in NumInt loops:                 128



 =====================
 S C F   U P D A T E S
 =====================
  
 Max. nr. of cycles:                               300
 Convergence criterion:                              0.0000010000
   secondary criterion:                              0.0010000000

 Mix parameter (when DIIS does not apply):           0.2000000000
 Mixed ADIIS+SDIIS will be used                  
    Max number of expansion vectors:                10
    Pure ADIIS when Max([F,P]) is above              0.1000000000
    Pure SDIIS when Max([F,P]) is below              0.0010000000
 Automatic ElectronSmearing (in case of problematic SCF convergence) disabled



 =================
 P R E C I S I O N  ***  (General: NumInt, NeglectFunctionTails, ...)  ***
 =================
  

 NumInt:           Target precision:                 4.0000000000
 -------           Initial precision:                4.0000000000
                   Min. precision (optimization):    4.0000000000

 Neglect Functions:          Basis functions:        0.1000000000E-05
 ------------------          Fit functions:          0.1000000000E-05



 ===========================
 L I N E A R   S C A L I N G
 ===========================
  

 Cut-off radii density fit:                        0.1000000000E-07
 Overlap cut-off criterion AO matrix elements:     0.1000000000E-05
 Cut-offs for Coulomb potential and fitted density:0.1000000000E-07
 Cut-off criterion for Coulomb multipole terms:    0.1000000000E-07
 Progressive Convergence parameter:                 0.000000000    
1
 ***************************************************************************************************



                                            ***************************
                                            *  C O M P U T A T I O N  *
                                            ***************************
  

 Number of elements of the density matrix on this node (used, total):       465      2211



 ===========================================
 Numerical Integration : Fuzzy Cells (Becke)
 ===========================================
  
 Becke grid quality: NORMAL         
  
 Lebedev angular grid order:             min:  11 max:  23
 Nr. of radial points:                   min:  46 max:  52

 Total nr. of points:      24832
 Nr. of blocks:              194
 Block length:               128
 Nr. of dummy points:          0


 Test of Precision of the Numerical Integration Grid
 ===================================================

 Integral of the Total Core Density:                   0.00000000000000



 ========================
 Density Fitting (zlmFit)
 ========================
  
 ZlmFit Fit Quality: NORMAL         
  
 Max L-expansion:                        min:   6 max:   7
 Nr. of radial interpolation points:     min:  39 max:  48



 =====
 S C F  ***  ScaSCF  ***
 =====
  
 Initial density matrix is calculated as sum of fragments

 CYCLE    1
 SCF Error: norm([F,P])=      2.012416847982, max([F,P])=      0.478418356570
 ***** SPIN 1 *****
 orbitals (Q,E):
 ---------------
 A :1...15           ( 1.00   -10.1879)  ( 1.00    -0.7846)  ( 1.00    -0.5389)  ( 1.00    -0.5389)
                     ( 1.00    -0.2994)  ( 0.00    -0.0385)  ( 0.00     0.0140)  ( 0.00     0.0141)
                     ( 0.00     0.0908)  ( 0.00     0.0908)  ( 0.00     0.1259)  ( 0.00     0.1353)
                     ( 0.00     0.2854)  ( 0.00     0.2855)  ( 0.00     0.3954)
 ***** SPIN 2 *****
 orbitals (Q,E):
 ---------------
 A :1...14           ( 1.00   -10.1879)  ( 1.00    -0.7846)  ( 1.00    -0.5389)  ( 1.00    -0.5389)
                     ( 0.00    -0.2994)  ( 0.00    -0.0385)  ( 0.00     0.0140)  ( 0.00     0.0141)
                     ( 0.00     0.0908)  ( 0.00     0.0908)  ( 0.00     0.1259)  ( 0.00     0.1353)
                     ( 0.00     0.2854)  ( 0.00     0.2855)
  
 Spin polar: 1 (Spin_A minus Spin_B electrons)

 CYCLE    2
  SDIIS (wt  0.000):  0.0887  0.9113
 A-DIIS (wt  1.000):  0.3614  0.6386
  DIIS coefficients:  0.3614  0.6386
 SCF Error: norm([F,P])=      0.486579044834, max([F,P])=      0.082896032374
 ***** SPIN 1 *****
 orbitals (Q,E):
 ---------------
 A :1...6            ( 1.00    -9.8103)  ( 1.00    -0.6037)  ( 1.00    -0.3686)  ( 1.00    -0.3685)
                     ( 1.00    -0.1535)  ( 0.00    -0.0019)
 ***** SPIN 2 *****
 orbitals (Q,E):
 ---------------
 A :1...5            ( 1.00    -9.8037)  ( 1.00    -0.5812)  ( 1.00    -0.3596)  ( 1.00    -0.3596)
                     ( 0.00    -0.1038)
  
 Spin polar: 1 (Spin_A minus Spin_B electrons)

 CYCLE    3
  SDIIS (wt  0.000):  0.0099  0.3115  0.6786
 A-DIIS (wt  1.000):  0.0000  0.1318  0.8682
  DIIS coefficients:  0.0000  0.1318  0.8682
 SCF Error: norm([F,P])=      0.229368132887, max([F,P])=      0.042696585960
 ***** SPIN 1 *****
 orbitals (Q,E):
 ---------------
 A :1...6            ( 1.00   -10.0166)  ( 1.00    -0.6544)  ( 1.00    -0.4012)  ( 1.00    -0.4011)
                     ( 1.00    -0.2220)  ( 0.00    -0.0085)
 ***** SPIN 2 *****
 orbitals (Q,E):
 ---------------
 A :1...5            ( 1.00   -10.0088)  ( 1.00    -0.6178)  ( 1.00    -0.3872)  ( 1.00    -0.3872)
                     ( 0.00    -0.1342)
  
 Spin polar: 1 (Spin_A minus Spin_B electrons)

 CYCLE    4
  SDIIS (wt  0.690): -0.0887  0.3639  0.7248
 A-DIIS (wt  0.310):  0.0000  0.3632  0.6368
  DIIS coefficients: -0.0612  0.3637  0.6975
 SCF Error: norm([F,P])=      0.170258166826, max([F,P])=      0.031687856018
 ***** SPIN 1 *****
 orbitals (Q,E):
 ---------------
 A :1...6            ( 1.00    -9.9233)  ( 1.00    -0.6252)  ( 1.00    -0.3774)  ( 1.00    -0.3774)
                     ( 1.00    -0.1913)  ( 0.00    -0.0046)
 ***** SPIN 2 *****
 orbitals (Q,E):
 ---------------
 A :1...5            ( 1.00    -9.9145)  ( 1.00    -0.5887)  ( 1.00    -0.3648)  ( 1.00    -0.3647)
                     ( 0.00    -0.1047)
  
 Spin polar: 1 (Spin_A minus Spin_B electrons)

 CYCLE    5
  SDIIS (wt  0.990):  0.0150 -0.0906 -0.0996  1.1752
 A-DIIS (wt  0.010):  0.0000  0.0000  0.0000  1.0000
  DIIS coefficients:  0.0149 -0.0897 -0.0986  1.1734
 SCF Error: norm([F,P])=      0.009389135920, max([F,P])=      0.002006782234
 ***** SPIN 1 *****
 orbitals (Q,E):
 ---------------
 A :1...6            ( 1.00    -9.9275)  ( 1.00    -0.6266)  ( 1.00    -0.3783)  ( 1.00    -0.3782)
                     ( 1.00    -0.1932)  ( 0.00    -0.0047)
 ***** SPIN 2 *****
 orbitals (Q,E):
 ---------------
 A :1...5            ( 1.00    -9.9183)  ( 1.00    -0.5892)  ( 1.00    -0.3656)  ( 1.00    -0.3656)
                     ( 0.00    -0.1046)
  
 Spin polar: 1 (Spin_A minus Spin_B electrons)

 CYCLE    6
  SDIIS (wt  1.000): -0.0013  0.0095  0.0056 -0.2028  1.1889
  DIIS coefficients: -0.0013  0.0095  0.0056 -0.2028  1.1889
 SCF Error: norm([F,P])=      0.000527885526, max([F,P])=      0.000110801352
 ***** SPIN 1 *****
 orbitals (Q,E):
 ---------------
 A :1...6            ( 1.00    -9.9274)  ( 1.00    -0.6266)  ( 1.00    -0.3782)  ( 1.00    -0.3782)
                     ( 1.00    -0.1931)  ( 0.00    -0.0048)
 ***** SPIN 2 *****
 orbitals (Q,E):
 ---------------
 A :1...5            ( 1.00    -9.9182)  ( 1.00    -0.5891)  ( 1.00    -0.3656)  ( 1.00    -0.3655)
                     ( 0.00    -0.1045)
  
 Spin polar: 1 (Spin_A minus Spin_B electrons)

 CYCLE    7
  SDIIS (wt  1.000):  0.0002  0.0006 -0.0002 -0.0104 -0.0799  1.0897
  DIIS coefficients:  0.0002  0.0006 -0.0002 -0.0104 -0.0799  1.0897
 SCF Error: norm([F,P])=      0.000082810707, max([F,P])=      0.000014634692
 ***** SPIN 1 *****
 orbitals (Q,E):
 ---------------
 A :1...6            ( 1.00    -9.9274)  ( 1.00    -0.6266)  ( 1.00    -0.3782)  ( 1.00    -0.3782)
                     ( 1.00    -0.1932)  ( 0.00    -0.0048)
 ***** SPIN 2 *****
 orbitals (Q,E):
 ---------------
 A :1...5            ( 1.00    -9.9182)  ( 1.00    -0.5891)  ( 1.00    -0.3656)  ( 1.00    -0.3655)
                     ( 0.00    -0.1045)
  
 Spin polar: 1 (Spin_A minus Spin_B electrons)

 CYCLE    8
  SDIIS (wt  1.000): -0.0000  0.0000  0.0001  0.0001 -0.0120  0.0345  0.9774
  DIIS coefficients: -0.0000  0.0000  0.0001  0.0001 -0.0120  0.0345  0.9774
 SCF Error: norm([F,P])=      0.000006548667, max([F,P])=      0.000001622051
 ***** SPIN 1 *****
 orbitals (Q,E):
 ---------------
 A :1...6            ( 1.00    -9.9274)  ( 1.00    -0.6266)  ( 1.00    -0.3782)  ( 1.00    -0.3782)
                     ( 1.00    -0.1932)  ( 0.00    -0.0048)
 ***** SPIN 2 *****
 orbitals (Q,E):
 ---------------
 A :1...5            ( 1.00    -9.9182)  ( 1.00    -0.5891)  ( 1.00    -0.3656)  ( 1.00    -0.3655)
                     ( 0.00    -0.1045)
  
 Spin polar: 1 (Spin_A minus Spin_B electrons)

 CYCLE    9
  SDIIS (wt  1.000): -0.0000  0.0000  0.0000  0.0000 -0.0019 -0.0016  0.2129  0.7906
  DIIS coefficients: -0.0000  0.0000  0.0000  0.0000 -0.0019 -0.0016  0.2129  0.7906
 SCF Error: norm([F,P])=      0.000001809798, max([F,P])=      0.000000373113
 ***** SPIN 1 *****
 orbitals (Q,E):
 ---------------
 A :1...6            ( 1.00    -9.9274)  ( 1.00    -0.6266)  ( 1.00    -0.3782)  ( 1.00    -0.3782)
                     ( 1.00    -0.1932)  ( 0.00    -0.0048)
 ***** SPIN 2 *****
 orbitals (Q,E):
 ---------------
 A :1...5            ( 1.00    -9.9182)  ( 1.00    -0.5891)  ( 1.00    -0.3656)  ( 1.00    -0.3655)
                     ( 0.00    -0.1045)
  
 Spin polar: 1 (Spin_A minus Spin_B electrons)

 SCF CONVERGED

 CYCLE   10
1
 ***************************************************************************************************



                                                *******************
                                                *  R E S U L T S  *
                                                *******************
  
 *** Using FIT density in Focky
  SDIIS (wt  1.000):  0.0000 -0.0000 -0.0000  0.0000  0.0002 -0.0021 -0.0035  0.2186  0.7869
  DIIS coefficients:  0.0000 -0.0000 -0.0000  0.0000  0.0002 -0.0021 -0.0035  0.2186  0.7869
 SCF Error: norm([F,P])=      0.000000511846, max([F,P])=      0.000000104761


                                   ***** SPIN 1 *****

 Scaled ZORA Orbital Energies, per Irrep and Spin:
 =================================================
                        Occup              E (au)              E (eV)       Diff (eV) with prev. cycle
                        -----      --------------------        ------       --------------------------
 A
               1        1.000     -0.99274459670338E+01      -270.140              -1.81E-07
               2        1.000     -0.62662186676127E+00       -17.051              -1.01E-06
               3        1.000     -0.37821333098826E+00       -10.292               4.72E-07
               4        1.000     -0.37818258229670E+00       -10.291              -2.32E-06
               5        1.000     -0.19316328794143E+00        -5.256              -5.59E-07
               6        0.000     -0.47561182386344E-02        -0.129
               7        0.000      0.49458816675559E-01         1.346
               8        0.000      0.49491382930585E-01         1.347
               9        0.000      0.15526395038411E+00         4.225
              10        0.000      0.15528028927285E+00         4.225
              11        0.000      0.16951232659457E+00         4.613
              12        0.000      0.22217256758571E+00         6.046
              13        0.000      0.38687485671243E+00        10.527
              14        0.000      0.38691191251674E+00        10.528
              15        0.000      0.48159304324962E+00        13.105
  
 HOMO :        5 A                -0.19316328794143E+00
 LUMO :        6 A                -0.47561182386344E-02
  


                                   ***** SPIN 2 *****

 Scaled ZORA Orbital Energies, per Irrep and Spin:
 =================================================
                        Occup              E (au)              E (eV)       Diff (eV) with prev. cycle
                        -----      --------------------        ------       --------------------------
 A
               1        1.000     -0.99181850938802E+01      -269.888              -2.79E-07
               2        1.000     -0.58909614175456E+00       -16.030              -4.84E-07
               3        1.000     -0.36557388317835E+00        -9.948               7.60E-07
               4        1.000     -0.36550835488238E+00        -9.946              -2.30E-06
               5        0.000     -0.10452857381082E+00        -2.844
               6        0.000     -0.30022321504821E-02        -0.082
               7        0.000      0.50112962517346E-01         1.364
               8        0.000      0.50153247315765E-01         1.365
               9        0.000      0.15540661359774E+00         4.229
              10        0.000      0.15542395178596E+00         4.229
              11        0.000      0.20185614205041E+00         5.493
              12        0.000      0.24524717969781E+00         6.674
              13        0.000      0.39698626828373E+00        10.803
              14        0.000      0.39702207773032E+00        10.804
  
 HOMO :        4 A                -0.36550835488238E+00
 LUMO :        5 A                -0.10452857381082E+00
  


 Orbital Energies, both Spins
 ========================================

 Irrep        no.  (spin)   Occup              E (au)                E (eV)
 ---------------------------------------------------------------------------
 A             1     A       1.00       -0.99274459670338E+01      -270.1395
 A             1      B      1.00       -0.99181850938802E+01      -269.8875
 A             2     A       1.00       -0.62662186676127E+00       -17.0512
 A             2      B      1.00       -0.58909614175456E+00       -16.0301
 A             3     A       1.00       -0.37821333098826E+00       -10.2917
 A             4     A       1.00       -0.37818258229670E+00       -10.2909
 A             3      B      1.00       -0.36557388317835E+00        -9.9478
 A             4      B      1.00       -0.36550835488238E+00        -9.9460
 A             5     A       1.00       -0.19316328794143E+00        -5.2562
 A             5      B      0.00       -0.10452857381082E+00        -2.8444
 A             6     A       0.00       -0.47561182386344E-02        -0.1294
 A             6      B      0.00       -0.30022321504821E-02        -0.0817
 A             7     A       0.00        0.49458816675559E-01         1.3458
 A             8     A       0.00        0.49491382930585E-01         1.3467
 A             7      B      0.00        0.50112962517346E-01         1.3636
 A             8      B      0.00        0.50153247315765E-01         1.3647
 A             9     A       0.00        0.15526395038411E+00         4.2249
 A            10     A       0.00        0.15528028927285E+00         4.2254
 A             9      B      0.00        0.15540661359774E+00         4.2288
 A            10      B      0.00        0.15542395178596E+00         4.2293
 A            11     A       0.00        0.16951232659457E+00         4.6127
 A            11      B      0.00        0.20185614205041E+00         5.4928
 A            12     A       0.00        0.22217256758571E+00         6.0456
 A            12      B      0.00        0.24524717969781E+00         6.6735
 A            13     A       0.00        0.38687485671243E+00        10.5274
 A            14     A       0.00        0.38691191251674E+00        10.5284
 A            13      B      0.00        0.39698626828373E+00        10.8025
 A            14      B      0.00        0.39702207773032E+00        10.8035
 A            15     A       0.00        0.48159304324962E+00        13.1048
 A            16     A       0.00        0.48160760358297E+00        13.1052
 A            15      B      0.00        0.49766873584891E+00        13.5423
 A            16      B      0.00        0.49768914359673E+00        13.5428
 A            17     A       0.00        0.66186774069580E+00        18.0103
 A            17      B      0.00        0.71066235126147E+00        19.3381
 A            18      B      0.00        0.78040736614932E+00        21.2360
 A            18     A       0.00        0.78507883945976E+00        21.3631
 A            19      B      0.00        0.84896737564313E+00        23.1016
 A            20      B      0.00        0.84901376832389E+00        23.1028
 A            19     A       0.00        0.84931614087350E+00        23.1111
 A            20     A       0.00        0.84936444327923E+00        23.1124
 A            21     A       0.00        0.91824021910614E+00        24.9866
 A            21      B      0.00        0.93803833528659E+00        25.5253
 A            22     A       0.00        0.11367318224555E+01        30.9320
 A            22      B      0.00        0.11883886040883E+01        32.3377
 A            23     A       0.00        0.13832244515467E+01        37.6395
 A            24     A       0.00        0.13832459364401E+01        37.6400
 A            23      B      0.00        0.13875821637835E+01        37.7580
 A            24      B      0.00        0.13875937168562E+01        37.7583
 A            25     A       0.00        0.15850070766564E+01        43.1302
 A            26     A       0.00        0.15851650126777E+01        43.1345
 A            25      B      0.00        0.16359145332682E+01        44.5155
 A            26      B      0.00        0.16361215572573E+01        44.5211
 A            27     A       0.00        0.16443323785289E+01        44.7446
 A            27      B      0.00        0.16508337041638E+01        44.9215
 A            28     A       0.00        0.19001160625403E+01        51.7048
 A            29     A       0.00        0.19002489298729E+01        51.7084
 A            28      B      0.00        0.19119642107690E+01        52.0272
 A            29      B      0.00        0.19120922507649E+01        52.0307
 A            30     A       0.00        0.22422638667694E+01        61.0151
 A            31     A       0.00        0.22681304825753E+01        61.7190
 A            32     A       0.00        0.22682672090138E+01        61.7227
 A            30      B      0.00        0.22801131529051E+01        62.0450
 A            31      B      0.00        0.22802324960913E+01        62.0483
 A            32      B      0.00        0.23326145998423E+01        63.4737
 A            33     A       0.00        0.25936621195943E+01        70.5771
 A            34     A       0.00        0.25940907797763E+01        70.5888
 A            33      B      0.00        0.26098533047280E+01        71.0177
 A            34      B      0.00        0.26103456388040E+01        71.0311
 A            35     A       0.00        0.27911003246019E+01        75.9497
 A            35      B      0.00        0.28054281534807E+01        76.3396
 A            36     A       0.00        0.28065251379983E+01        76.3694
 A            37     A       0.00        0.28088121214203E+01        76.4317
 A            38     A       0.00        0.28091935119530E+01        76.4420
 A            36      B      0.00        0.28098905847329E+01        76.4610
 A            37      B      0.00        0.28105910876370E+01        76.4801
 A            38      B      0.00        0.28110150180908E+01        76.4916
 A            39     A       0.00        0.30937724946263E+01        84.1858
 A            39      B      0.00        0.31537886718607E+01        85.8190
 A            40     A       0.00        0.32624198790454E+01        88.7750
 A            40      B      0.00        0.32632093183965E+01        88.7964
 A            41     A       0.00        0.34344302610117E+01        93.4556
 A            41      B      0.00        0.34938162268593E+01        95.0716
 A            42     A       0.00        0.38985680892612E+01       106.0854
 A            43     A       0.00        0.38986485211634E+01       106.0876
 A            42      B      0.00        0.39283618738306E+01       106.8962
 A            43      B      0.00        0.39284148440231E+01       106.8976
 A            44     A       0.00        0.40371205865019E+01       109.8556
 A            45     A       0.00        0.40371257295814E+01       109.8558
 A            44      B      0.00        0.40702465419507E+01       110.7570
 A            45      B      0.00        0.40702745225870E+01       110.7578
 A            46     A       0.00        0.44472899548683E+01       121.0169
 A            47     A       0.00        0.44473938468413E+01       121.0197
 A            46      B      0.00        0.44876275234077E+01       122.1146
 A            47      B      0.00        0.44878235158697E+01       122.1199
 A            48     A       0.00        0.47901816257231E+01       130.3475
 A            48      B      0.00        0.47950713830799E+01       130.4805
 A            49     A       0.00        0.53781553211886E+01       146.3471
 A            50     A       0.00        0.53782043239055E+01       146.3484
 A            49      B      0.00        0.54015334057486E+01       146.9832
 A            50      B      0.00        0.54015957352910E+01       146.9849
 A            51     A       0.00        0.56474210150263E+01       153.6741
 A            52     A       0.00        0.56474424153026E+01       153.6747
 A            51      B      0.00        0.56925189948343E+01       154.9013
 A            52      B      0.00        0.56926917626074E+01       154.9060
 A            53     A       0.00        0.60826258617751E+01       165.5167
 A            53      B      0.00        0.61084163265669E+01       166.2185
 A            54     A       0.00        0.61366823652757E+01       166.9876
 A            54      B      0.00        0.62083942024927E+01       168.9390
 A            55     A       0.00        0.69742521323173E+01       189.7791
 A            55      B      0.00        0.69850022491183E+01       190.0716
 A            56     A       0.00        0.73907055208965E+01       201.1113
 A            57     A       0.00        0.73907561861830E+01       201.1127
 A            56      B      0.00        0.74070209440180E+01       201.5553
 A            57      B      0.00        0.74070240621851E+01       201.5554
 A            58     A       0.00        0.74571051886104E+01       202.9182
 A            58      B      0.00        0.74986343497533E+01       204.0482
 A            59     A       0.00        0.53132987899653E+02      1445.8222
 A            59      B      0.00        0.53156674755848E+02      1446.4667
  
 Spin polar: 1 (Spin_A minus Spin_B electrons)


 All Electron Calculation, thus no Orbital Energies of the Core Orbitals are calculated


 Fit test: (difference of exact and fit density, squared integrated, result summed over spins)
         Sum-of-Fragments:                             0.00000000008002
         Orthogonalized Fragments:                     0.00000889123073
         SCF:                                          0.00002152311563



 ==========================
 Electron Density at Nuclei
 ==========================
  
 The electron density is calculated at points on a small sphere around the center of a nucleus.
 The printed electron density is the average electron density on these points.
 The radius of the sphere is the printed approximate finite nuclear radius.
 Note: ZORA-4 density is used, which includes small component density

         Atom        Nuclear Radius (Angstrom)             Electron Density (a.u.)
         ----        -------------------------             -----------------------
     1)   C                 0.0000320678                              126.80520
     2)   H                 0.0000181514                                0.51148
     3)   H                 0.0000181514                                0.51148
     4)   H                 0.0000181514                                0.51143



 =======================================
 M U L L I K E N   P O P U L A T I O N S
 =======================================
  
 The survey below gives for each atom:
 a) the total charge (Z minus electrons)
 b) the net spin polarization (nr of electrons spin-A minus spin-B)
 c) for each spin the atomic electron valence density (integrated) per L-value.

 Atom              Charge    Spin density          S         P         D         F
 ----              ------    ------------       ------    ------    ------    ------
 1 C               0.4862          1.1066   A:  1.5381    1.7644    0.0075    0.0003
                                            B:  1.4376    0.7530    0.0118    0.0012
 2 H              -0.1621         -0.0356   A:  0.5066    0.0531    0.0036    0.0000
                                            B:  0.5665    0.0304    0.0019    0.0000
 3 H              -0.1621         -0.0356   A:  0.5066    0.0531    0.0036    0.0000
                                            B:  0.5665    0.0304    0.0019    0.0000
 4 H              -0.1621         -0.0355   A:  0.5066    0.0531    0.0036    0.0000
                                            B:  0.5665    0.0304    0.0019    0.0000

 Populations of individual BAS functions
 ----------------------------------------
 1 C            0.2377  0.7718  0.0780  0.4940 -0.0435 -0.1056 -0.1055  0.2303  0.4299  0.4297
                0.5585  0.0981  0.0981  0.1309  0.0018  0.0037  0.0000  0.0018  0.0000  0.0001
               -0.0001 -0.0001 -0.0010  0.0002  0.0000  0.0002 -0.0002 -0.0010  0.0002  0.0019
         B:     0.2352  0.7777  0.0041  0.4653 -0.0446 -0.1159 -0.1156 -0.0000  0.3974  0.3971
               -0.0000  0.0950  0.0950  0.0000  0.0116  0.0040 -0.0000  0.0115  0.0000 -0.0154
                0.0029  0.0009 -0.0000  0.0012  0.0000 -0.0033  0.0028 -0.0000 -0.0033  0.0000
 2 H            0.0815  0.2537  0.1714  0.0129  0.0151  0.0250 -0.0008  0.0007  0.0005  0.0038
                0.0014 -0.0020
         B:     0.0895  0.3053  0.1717  0.0143  0.0161  0.0000 -0.0001  0.0007  0.0000  0.0043
                0.0000 -0.0031
 3 H            0.0815  0.2537  0.1714  0.0129  0.0151  0.0250 -0.0008  0.0007  0.0005  0.0038
                0.0014 -0.0020
         B:     0.0895  0.3053  0.1717  0.0143  0.0161  0.0000 -0.0001  0.0007  0.0000  0.0043
               -0.0000 -0.0031
 4 H            0.0816  0.2537  0.1713  0.0163  0.0118  0.0250  0.0059  0.0012  0.0018 -0.0033
                0.0000 -0.0019
         B:     0.0898  0.3050  0.1717  0.0171  0.0133  0.0000  0.0062  0.0013  0.0000 -0.0026
                0.0000 -0.0031

 Gross Charges per Atom (Z minus electrons)
 ==========================================
             0.4862   -0.1621   -0.1621   -0.1621
 Net Total: -0.00000000


 Atom-Atom Population Matrix (off-diagonal elements not doubled)
 ===============================================================


                                   ***** SPIN 1 *****

     1 :     2.6490
     2 :     0.2204    0.4424
     3 :     0.2204   -0.0498    0.4424
     4 :     0.2204   -0.0497   -0.0497    0.4424

                                   ***** SPIN 2 *****

     1 :     1.6434
     2 :     0.1867    0.5164
     3 :     0.1867   -0.0521    0.5164
     4 :     0.1867   -0.0522   -0.0522    0.5165



 =================================================
 H I R S H F E L D   C H A R G E   A N A L Y S I S
 =================================================
  
 For each fragment: the (numerical) integral of rho(scf) * rho(fragment)/rho(sum-of-fragments)
 (nuclear charges are included, electrons are counted negative)

 The fragments and their ordering are defined in the early G E O M E T R Y output section.
 If you use single-atom fragments, this usually implies that all atoms of the same
 chemical type are grouped together. This may not be the order in which you listed them
 in the input file!

    1  C                        -0.1139
    2  H                         0.0380
    3  H                         0.0380
    4  H                         0.0380

 Sum of these charges (accuracy NumInt/Tails) =           0.00002421



 =============================
 V O R O N O I   C H A R G E S
 =============================
  
 For each atom: the (numerical) integral of the total electronic charge density in its Voronoi cell,
 i.e. the region of space that is closer to that atom than to any other atom.
 (cf. Wigner-Seitz cells in crystals)

 Within the Voronoi cell the subintegrals over the atomic sphere and the remaining part are evaluated
 separately to give the numbers of electrons (negative charge) in these regions.
 The net total charge in the cell (including the nuclear charge) is also given.

 Values are provided for
    a) the Initial (sum-of-fragments) density
    b) the Orthogonalized-Fragments density
    c) the SCF density
    d) the Voronoi Deformation Density (VDD): the difference SCF-Initial for the complete atomic cell


  Atom                Initial                    OrthFrag                   SCF
             Sphere RestCell NetTotal   Sphere RestCell NetTotal   Sphere RestCell NetTotal      VDD
 -----       ------------------------   ------------------------   ------------------------    -----
    1 C      -2.082   -2.423    1.494   -2.158   -2.710    1.131   -2.103   -2.447    1.450   -0.045
    2 H      -0.077   -1.431   -0.508   -0.098   -1.285   -0.383   -0.111   -1.379   -0.489    0.019
    3 H      -0.077   -1.413   -0.490   -0.098   -1.273   -0.371   -0.111   -1.366   -0.477    0.012
    4 H      -0.077   -1.420   -0.497   -0.098   -1.278   -0.377   -0.111   -1.372   -0.483    0.013
 ---------------------------------------------------------------------------------------------------
 Total NetCharge:               0.000                      0.000                      0.000    0.000
 (accuracy NumInt/Tails)

 Remark: the 'NetTotal' Voronoi charges often do not match the Mulliken and/or Hirshfeld charges very
 well. This is caused by the fact that chemically different atoms are not treated in accordance with
 their relative sizes. (Voronoi cells are defined by boundary planes halfway between the atoms.)
 However, the CHANGES in charge, comparing 'Initial' to 'SCF' for instance, do give a fair indication
 of the flow of charge caused by the relaxation from sum-of-fragments to self-consistency.

 Warning: the absolute accuracy of the VDD charges obtained using the Fuzzy Cells (Becke) integration
 scheme is much poorer than the one obtained with an 'equivalent' Voronoi integration grid. 



 =================================================================
 M U L T I P O L E   D E R I V E D   C H A R G E   A N A L Y S I S
 =================================================================

 This charge analysis uses the atomic multipoles (obtained from the fitted density) up to some level X,
 and reconstructs these multipoles exactly (up to level X) by distributing charges over all atoms.
 This is achieved by using Lagrange multipliers and a weight function to keep the multipoles local.

 Dummy atoms can be included (by setting INCDUM in MDC-block to 1) to obtain a fractional charge.
 This is generally useful and necessary only for small symmetrical molecules, when there are not
 enough degrees of freedom to reconstruct the multipoles.

 Since the atomic multipoles are reconstructed up to level X,
 the molecular multipoles are represented also up to level X.
 The recommended level is to reconstruct up to quadrupole : -> MDC-q charges.

 See: M. Swart, P.Th. van Duijnen, J.G. Snijders, J.Comput.Chem., (2001), p. 79-88.

 ------------------------------------------------------------------------ 
 Atomic electronic multipole moments from SCF equations (a.u.) for spin A
 ------------------------------------------------------------------------ 

   atom        charge        dip-x     dip-y     dip-z      quad-xx   quad-xy   quad-xz   quad-yy   quad-yz   quad-zz
 --------------------------------------------------------------------------------------------------------------------
    1 C     -0.340777    -0.000076 -0.000000  0.000000     0.613260  0.000000  0.000000  0.613117  0.000000 -1.226377
    2 H     -0.053073     0.014573 -0.025168 -0.000000     0.055378 -0.047730  0.000000  0.138127 -0.000000 -0.193505
    3 H     -0.053073     0.014573  0.025168  0.000000     0.055378  0.047730 -0.000000  0.138127 -0.000000 -0.193505
    4 H     -0.053077    -0.029016  0.000000 -0.000000     0.179596  0.000000 -0.000000  0.013967  0.000000 -0.193563

 ------------------------------------------------------------------------ 
 Atomic electronic multipole moments from SCF equations (a.u.) for spin B
 ------------------------------------------------------------------------ 

   atom        charge        dip-x     dip-y     dip-z      quad-xx   quad-xy   quad-xz   quad-yy   quad-yz   quad-zz
 --------------------------------------------------------------------------------------------------------------------
    1 C      0.534999    -0.000010 -0.000000  0.000000    -0.130693  0.000000 -0.000000 -0.130916  0.000000  0.261609
    2 H     -0.011681    -0.003832  0.006725 -0.000000    -0.028609 -0.043001  0.000000  0.045901 -0.000000 -0.017293
    3 H     -0.011681    -0.003832 -0.006725  0.000000    -0.028609  0.043001 -0.000000  0.045901  0.000000 -0.017293
    4 H     -0.011637     0.007752  0.000000 -0.000000     0.083311  0.000000 -0.000000 -0.065930  0.000000 -0.017381

 ----------------------------------------------------- 
 MDC atomic charges (includes spinA + spinB electrons)
 ----------------------------------------------------- 

 The MDC-m charges are just the Monopole terms in the multipole expansion, while for the MDC-d charges
 also the Dipoles are reconstructed. The usually preferred charges are the MDC-q charges.
 These reconstruct the Monopoles, Dipoles and Quadrupoles (both atomic AND molecular).

 Given here are the atomic charges of both spins added. These should be compared
 to the values from a "normal" RESTRICTED calculation.

        Atom    Level:     MDC-m        MDC-d        MDC-q
 ---------------------------------------------------------
     1     C            0.194222     0.147044    -0.418097
     2     H           -0.064754    -0.049006     0.148155
     3     H           -0.064754    -0.049006     0.148155
     4     H           -0.064713    -0.049031     0.121787

 -------------------------------- 
 MDC spin density (spinA - spinB)
 -------------------------------- 
 Reported here are the the number of Alpha-electrons minus the number of Beta-electrons
 per atom, which usually are regarded as spin densities.

        Atom    Level:     MDC-m        MDC-d        MDC-q
 ---------------------------------------------------------
     1     C            0.875776     0.798680     1.862962
     2     H            0.041392     0.067094    -0.287649
     3     H            0.041392     0.067094    -0.287649
     4     H            0.041440     0.067131    -0.287664

 --------------------------------------------- 
 Represented total molecular multipole moments
 --------------------------------------------- 

 Given here are the Molecular multipole moments from the atomic charges, and from the Fit Density.
 Note that the atomic charges represent the latter, NOT the ones from the Exact density.

 Reported here are the Molecular multipole moments of both spins added.
 They should be compared to the values from a "normal" RESTRICTED calculation.

            Q (a.u.)             Dipole moment (Debye)                                          Quadrupole moment (a.u.)
                                 x         y         z              xx        xy        xz        yy        yz        zz
------------------------------------------------------------------------------------------------------------------------
MDC-m        -0.0000       -0.0002   -0.0000    0.0000         -0.1995   -0.0000    0.0000   -0.1997    0.0000    0.3992
MDC-d        -0.0000        0.0001   -0.0000    0.0000         -0.1512   -0.0000    0.0000   -0.1510    0.0000    0.3022
MDC-q        -0.0000        0.1359   -0.0000    0.0000          0.3484   -0.0000    0.0000    0.5110    0.0000   -0.8593
 
Fit.Dens.    -0.0000        0.0001   -0.0000    0.0000          0.6646   -0.0000    0.0000    0.6632    0.0000   -1.3278



 ==========
 S**2 value  ***  see also R. Bulo et al., J.Am.Chem.Soc., 124 (2002) 13903-13910, note (29)  ***
 ==========
  
                                       exact      expectation value

 Total S2 (S squared)                  0.75000             0.75436



 =============
 Dipole Moment  ***  (Debye)  ***
 =============
  
 Vector   :         0.00019212     -0.00000003     -0.00000002
 Magnitude:         0.00019212

 This molecular dipole moment is calculated with analytic integration



 =========================================
 Quadrupole Moment (Buckingham convention)  ***  (a.u.)  ***
 =========================================
  
      quad-xx        quad-xy        quad-xz        quad-yy        quad-yz        quad-zz
      0.66581765     0.00000000     0.00000001     0.66471062     0.00000000    -1.33052827

 This molecular quadrupole moment is calculated with analytic integration
1



 ===========================
 B O N D I N G   E N E R G Y  ***  (decomposition)  ***
 ===========================
  
*** IMPORTANT NOTE ***

The bond energy is computed as an energy difference between molecule and
fragments. In particular when the fragments are single atoms, they are usually
computed as SPHERICALLY SYMMETRIC and SPIN-RESTRICTED. Obviously, this usually
does NOT represent the true atomic groundstate.

To obtain the 'real' bond energy, (atomic) correction terms must be applied
for the true (multiplet) fragment ground state. See ref: E.J.Baerends,
V.Branchadell, M.Sodupe, Chem.Phys.Lett.265 (1997) 481

General theoretical background on the bond energy decomposition scheme used
here (Morokuma-Ziegler) can be found in the review paper:
F.M. Bickelhaupt and E.J. Baerends,
"Kohn-Sham Density Functional Theory: Predicting and Understanding Chemistry"
In: Rev. Comput. Chem.; Lipkowitz, K. B. and Boyd, D. B., Eds.;
Wiley-VCH: New York, 2000, Vol. 15, 1-86.

Symbols used in the Bickelhaupt-Baerends (BB) paper are given below to make
the direct connection to that paper, where detailed explanations can be found
on the meaning of the various terms.


                                                   hartree              eV         kcal/mol           kJ/mol
                                      --------------------     -----------       ----------      -----------

Pauli Repulsion
  Kinetic (Delta T^0):                   4.058872186953862        110.4475          2546.98         10656.57
  Delta V^Pauli Coulomb:                -1.641937227692274        -44.6794         -1030.33         -4310.91
  Delta V^Pauli LDA-XC:                 -0.506687428112320        -13.7877          -317.95         -1330.31
  Delta V^Pauli GGA-Exchange:            0.039957052626702          1.0873            25.07           104.91
  Delta V^Pauli GGA-Correlation:        -0.039824317184866         -1.0837           -24.99          -104.56
                                      --------------------     -----------       ----------      -----------
  Total Pauli Repulsion:                 1.910380266591105         51.9841          1198.78          5015.70
 (Total Pauli Repulsion =
  Delta E^Pauli in BB paper)

Steric Interaction
  Pauli Repulsion (Delta E^Pauli):       1.910380266591105         51.9841          1198.78          5015.70
  Electrostatic Interaction:            -0.255680836553791         -6.9574          -160.44          -671.29
 (Electrostatic Interaction =
  Delta V_elstat in the BB paper)
                                      --------------------     -----------       ----------      -----------
  Total Steric Interaction:              1.654699430037313         45.0267          1038.34          4344.41
 (Total Steric Interaction =
  Delta E^0 in the BB paper)

Orbital Interactions
  A:                                    -2.302332262842649        -62.6496         -1444.74         -6044.77
                                      --------------------     -----------       ----------      -----------
  Total Orbital Interactions:           -2.302332262842649        -62.6496         -1444.74         -6044.77

Alternative Decomposition Orb.Int.
  Kinetic:                              -3.381320608510106        -92.0104         -2121.81         -8877.66
  Coulomb:                               1.156843457839239         31.4793           725.93          3037.29
  XC:                                   -0.077855112171783         -2.1185           -48.85          -204.41
                                      --------------------     -----------       ----------      -----------
  Total Orbital Interactions:           -2.302332262842649        -62.6496         -1444.74         -6044.77

  Residu (E=Steric+OrbInt+Res):         -0.000012972864143         -0.0004            -0.01            -0.03

Total Bonding Energy:                   -0.647645805669478        -17.6233          -406.40         -1700.39


Summary of Bonding Energy (energy terms are taken from the energy decomposition above)
======================================================================================

  Electrostatic Energy:                 -0.255680836553791         -6.9574          -160.44          -671.29
  Kinetic Energy:                        0.677551578443757         18.4371           425.17          1778.91
  Coulomb (Steric+OrbInt) Energy:       -0.485106742717177        -13.2004          -304.41         -1273.65
  XC Energy:                            -0.584409804842267        -15.9026          -366.72         -1534.37
                                      --------------------     -----------       ----------      -----------
  Total Bonding Energy:                 -0.647645805669479        -17.6233          -406.40         -1700.39


Correction terms (incorporated in energies above; only for test purposes):

1. Indication of fit-quality: 1st-order fit-correction used in the energy (hartree):   0.0001441403
2. Electrostatic (Fit correction):   0.0000000000

Scaled ZORA energy correction, not included in bonding energy (hartree):           -0.0000012963
 NOTE: This scaled ZORA energy correction should only be used to compare two calculations
 in which the only difference in the calculation is the electron configuration.
 Then the difference in energy of this term should be added to the difference in energy of
 the two electron configurations.
 This term should not be used otherwise.
 In practice it is useful only for core excitation energy calculations.



 =========================================
 F R A G M E N T   E N E R G Y   T E R M S  ***  (summed over all fragments)  ***
 =========================================
  

The energy terms below are (parts of) the Total Energy of the fragments from which the molecule
 is built.

Exchange and Correlation
  Exchange LDA:                         -4.979295941823799       -135.4935         -3124.56        -13073.14
  Exchange GGA:                         -0.707143338805070        -19.2423          -443.74         -1856.60
  Correlation LDA:                       0.000000000000000          0.0000             0.00             0.00
  Correlation GGA:                      -0.215698103378266         -5.8694          -135.35          -566.32
                                      --------------------     -----------       ----------      -----------
  Total XC:                             -5.902137384007135       -160.6053         -3703.65        -15496.06
1



 =======================================================
 S F O   P O P U L A T I O N S ,   M O   A N A L Y S I S
 =======================================================
  
 A Mulliken population analysis is performed on (input-)selected MOs. All populations refer to SFOs.
 BAS populations may have been printed directly after the SCF part.



                                   ***** SPIN 1 *****



                                       === A ===


 SFO contributions (%) per orbital
 (multiplication by the orbital occupation yields the SFO Gross Populations)

 Orb.:        1      2      3      4      5      6      7      8      9
 occup:     1.00   1.00   1.00   1.00   1.00   0.00   0.00   0.00   0.00
 CF+SFO     ----   ----   ----   ----   ----   ----   ----   ----   ----
 ------
      1:   99.89   0.01   0.00   0.00   0.00  -0.00   0.00  -0.00   0.00
      2:   -0.00  54.47  -0.00  -0.00  -0.00   3.50   0.00  -0.00   0.00
      3:    0.00  -0.56  -0.00   0.00  -0.00 -19.54  -0.00  -0.00   0.00
      6:    0.00   0.00  42.84   0.00   0.00  -0.00   1.59   0.00  49.80
      7:   -0.00  -0.00  -0.12  -0.00   0.00   0.00 -43.46  -0.00  57.53
      8:   -0.00  -0.00  -0.48  -0.00   0.00  -0.00   0.95   0.00  -1.42
      9:   -0.00  -0.00   0.00  42.84   0.00   0.00   0.00   1.59   0.00
     10:   -0.00   0.00  -0.00  -0.13  -0.00  -0.00  -0.00 -43.43   0.00
     12:   -0.00   0.00   0.00   0.00  91.99   0.00   0.00   0.00  -0.00
     27:    0.02  14.26   9.24  27.71   0.00  13.73  10.81  32.32   6.48
     28:    0.00  -0.63   0.07   0.20  -0.00  25.03  11.48  34.34  -6.03
     29:    0.00  -0.30   0.02   0.07  -0.00  -0.93   1.04   3.11  -1.91
     30:    0.00   0.49   0.21   0.58  -0.00   0.18   0.11   0.08   2.41
     31:    0.01   1.47   0.58  -0.55  -0.00   0.54   0.08   0.49  -0.45
     32:   -0.00  -0.00   0.00   0.00   2.50  -0.00   0.00  -0.00  -0.00
     38:    0.02  14.26   9.23  27.72   0.00  13.73  10.79  32.34   6.48
     39:    0.00  -0.63   0.07   0.20   0.00  25.03  11.46  34.36  -6.03
     40:    0.00  -0.30   0.02   0.07  -0.00  -0.93   1.04   3.12  -1.92
     41:    0.00   0.49   0.21   0.58  -0.00   0.18   0.11   0.08   2.41
     42:    0.01   1.47   0.58  -0.55  -0.00   0.54   0.08   0.49  -0.45
     43:   -0.00   0.00   0.00   0.00   2.50   0.00   0.00  -0.00  -0.00
     49:    0.02  14.26  36.95   0.00   0.00  13.75  43.10   0.00  25.92
     50:    0.00  -0.63   0.26   0.00   0.00  25.09  45.75   0.00 -24.10
     51:    0.00  -0.30   0.09   0.00  -0.00  -0.93   4.16   0.00  -7.66
     52:    0.01   1.96  -0.35  -0.00  -0.00   0.73   0.76   0.00  -1.55
     53:    0.00   0.00   0.00   1.18  -0.00  -0.00   0.00   0.00   0.00
     54:   -0.00   0.00  -0.00   0.00   2.50  -0.00   0.00  -0.00  -0.00


 Summation over all MOs, multiplied by occupation: Total SFO Gross Populations in this Irrep
 ===========================================================================================

     1.00    0.54   -0.01   -0.00   -0.00    0.43   -0.00   -0.00    0.43   -0.00   -0.00    0.92
    -0.00    0.00    0.00    0.00    0.00    0.00    0.00   -0.00    0.00    0.00   -0.00   -0.00
     0.00   -0.00    0.51   -0.00   -0.00    0.01    0.02    0.02    0.00    0.00    0.00    0.00
     0.00    0.51   -0.00   -0.00    0.01    0.02    0.02    0.00    0.00    0.00    0.00    0.00
     0.51   -0.00   -0.00    0.02    0.01    0.02    0.00    0.00    0.00    0.00    0.00



                                   ***** SPIN 2 *****



                                       === A ===


 SFO contributions (%) per orbital
 (multiplication by the orbital occupation yields the SFO Gross Populations)

 Orb.:        1      2      3      4      5      6      7      8
 occup:     1.00   1.00   1.00   1.00   0.00   0.00   0.00   0.00
 CF+SFO     ----   ----   ----   ----   ----   ----   ----   ----
 ------
      1:  100.18   0.00  -0.00   0.00   0.00   0.00   0.00  -0.00
      2:    0.00  44.50   0.00  -0.00  -0.00   4.72   0.00  -0.00
      3:   -0.00  -0.91   0.00  -0.00  -0.00 -19.16  -0.00  -0.00
      6:    0.00   0.00  38.65   0.00   0.00  -0.00   2.21   0.00
      7:   -0.00   0.00  -0.45  -0.00   0.00   0.00 -41.92  -0.00
      9:   -0.00  -0.00   0.00  38.65  -0.00   0.00   0.00   2.21
     10:   -0.00   0.00  -0.00  -0.46  -0.00  -0.00  -0.00 -41.88
     12:   -0.00  -0.00   0.00   0.00  87.17   0.00  -0.00   0.00
     13:   -0.00  -0.00   0.00   0.00   2.37   0.00   0.00   0.00
     27:   -0.03  17.33  10.02  30.05   0.00  11.97   9.81  29.33
     28:    0.00  -0.65   0.02   0.06  -0.00  26.24  12.10  36.16
     29:   -0.00  -0.23   0.02   0.06  -0.00  -0.90   1.06   3.19
     31:   -0.02   1.62   0.57  -0.56  -0.00   0.55   0.10   0.51
     32:   -0.00   0.00   0.00   0.00   3.28  -0.00   0.00  -0.00
     38:   -0.03  17.33  10.02  30.05   0.00  11.97   9.79  29.34
     39:    0.00  -0.65   0.02   0.06   0.00  26.24  12.08  36.18
     40:   -0.00  -0.23   0.02   0.06  -0.00  -0.90   1.06   3.20
     42:   -0.02   1.62   0.57  -0.56   0.00   0.55   0.10   0.51
     43:   -0.00   0.00   0.00   0.00   3.28   0.00   0.00  -0.00
     49:   -0.03  17.35  40.05   0.00   0.00  12.00  39.11   0.00
     50:   -0.00  -0.65   0.08   0.00   0.00  26.32  48.14   0.00
     51:   -0.00  -0.23   0.09   0.00  -0.00  -0.91   4.26   0.00
     52:   -0.03   2.17  -0.43  -0.00  -0.00   0.73   0.82   0.00
     53:    0.00   0.00   0.00   1.33  -0.00  -0.00   0.00   0.00
     54:   -0.00   0.00  -0.00   0.00   3.29  -0.00   0.00  -0.00


 Summation over all MOs, multiplied by occupation: Total SFO Gross Populations in this Irrep
 ===========================================================================================

     1.00    0.44   -0.01   -0.00   -0.00    0.39   -0.00   -0.01    0.39   -0.00   -0.01    0.00
     0.00    0.00    0.00    0.00    0.00   -0.00    0.00   -0.00   -0.00    0.00    0.00    0.00
     0.00   -0.00    0.57   -0.01   -0.00    0.01    0.02    0.00    0.00    0.00    0.00    0.00
     0.00    0.57   -0.01   -0.00    0.01    0.02    0.00    0.00    0.00    0.00    0.00   -0.00
     0.57   -0.01   -0.00    0.02    0.01    0.00    0.00    0.00    0.00    0.00    0.00



 List of all MOs, ordered by energy, with the most significant SFO gross populations
 ===================================================================================

 Each percentage contribution in the table below corres ponds to the indicated SFO.
 In general, a SFO may be a linear combination of several Fragment Orbitals on the same,
 or on symmetry-related Fragments. Only the first 'member' of such a combination is
 specified here. A full definition of all SFOs is given in an earlier part of the output.
 The numbering of the SFOs in this table does NOT include the Core Orbitals, and starts
 from one for each symmetry representation, as in the SFO definition list earlier.


                                       *** SPIN 1 ***


       E(eV)  Occ       MO           %     SFO (first member)   E(eV)  Occ   Fragment
 -------------------------------------------------------------------------------------

     -17.051  1.00     2 A         54.47%     2 S             -13.802  2.00     1 C
                                   14.26%     1 S              -6.484  1.00     4 H
                                   14.26%     1 S              -6.484  1.00     2 H
                                   14.26%     1 S              -6.484  1.00     3 H
                                    1.96%     1 P:x            11.162  0.00     4 H
                                    1.47%     1 P:y            11.162  0.00     2 H
                                    1.47%     1 P:y            11.162  0.00     3 H
     -10.292  1.00     3 A         42.84%     1 P:x            -5.135  0.67     1 C
                                   36.95%     1 S              -6.484  1.00     4 H
                                    9.24%     1 S              -6.484  1.00     2 H
                                    9.23%     1 S              -6.484  1.00     3 H
     -10.291  1.00     4 A         42.84%     1 P:y            -5.135  0.67     1 C
                                   27.72%     1 S              -6.484  1.00     3 H
                                   27.71%     1 S              -6.484  1.00     2 H
                                    1.18%     1 P:y            11.162  0.00     4 H
      -5.256  1.00     5 A         91.99%     1 P:z            -5.135  0.67     1 C
                                    2.50%     1 P:z            11.162  0.00     3 H
                                    2.50%     1 P:z            11.162  0.00     2 H
                                    2.50%     1 P:z            11.162  0.00     4 H
      -0.129  0.00     6 A         25.09%     2 S               2.096  0.00     4 H
                                   25.03%     2 S               2.096  0.00     3 H
                                   25.03%     2 S               2.096  0.00     2 H
                                  -19.54%     3 S              10.456  0.00     1 C
                                   13.75%     1 S              -6.484  1.00     4 H
                                   13.73%     1 S              -6.484  1.00     3 H
                                   13.73%     1 S              -6.484  1.00     2 H
                                    3.50%     2 S             -13.802  2.00     1 C
       1.346  0.00     7 A         45.75%     2 S               2.096  0.00     4 H
                                  -43.46%     2 P:x             4.559  0.00     1 C
                                   43.10%     1 S              -6.484  1.00     4 H
                                   11.48%     2 S               2.096  0.00     2 H
                                   11.46%     2 S               2.096  0.00     3 H
                                   10.81%     1 S              -6.484  1.00     2 H
                                   10.79%     1 S              -6.484  1.00     3 H
                                    4.16%     3 S              41.380  0.00     4 H
                                    1.59%     1 P:x            -5.135  0.67     1 C
                                    1.04%     3 S              41.380  0.00     2 H
                                    1.04%     3 S              41.380  0.00     3 H
       1.347  0.00     8 A        -43.43%     2 P:y             4.559  0.00     1 C
                                   34.36%     2 S               2.096  0.00     3 H
                                   34.34%     2 S               2.096  0.00     2 H
                                   32.34%     1 S              -6.484  1.00     3 H
                                   32.32%     1 S              -6.484  1.00     2 H
                                    3.12%     3 S              41.380  0.00     3 H
                                    3.11%     3 S              41.380  0.00     2 H
                                    1.59%     1 P:y            -5.135  0.67     1 C
       4.225  0.00     9 A         57.53%     2 P:x             4.559  0.00     1 C
                                   49.80%     1 P:x            -5.135  0.67     1 C
                                   25.92%     1 S              -6.484  1.00     4 H
                                  -24.10%     2 S               2.096  0.00     4 H
                                   -7.66%     3 S              41.380  0.00     4 H
                                    6.48%     1 S              -6.484  1.00     3 H
                                    6.48%     1 S              -6.484  1.00     2 H
                                   -6.03%     2 S               2.096  0.00     3 H
                                   -6.03%     2 S               2.096  0.00     2 H
                                    2.41%     1 P:x            11.162  0.00     2 H
                                    2.41%     1 P:x            11.162  0.00     3 H
                                   -1.92%     3 S              41.380  0.00     3 H
                                   -1.91%     3 S              41.380  0.00     2 H
                                   -1.55%     1 P:x            11.162  0.00     4 H
                                   -1.42%     3 P:x            55.959  0.00     1 C
       4.225  0.00    10 A         57.52%     2 P:y             4.559  0.00     1 C
                                   49.81%     1 P:y            -5.135  0.67     1 C
                                   19.45%     1 S              -6.484  1.00     2 H
                                   19.45%     1 S              -6.484  1.00     3 H
                                  -18.09%     2 S               2.096  0.00     2 H
                                  -18.09%     2 S               2.096  0.00     3 H
                                   -5.75%     3 S              41.380  0.00     2 H
                                   -5.75%     3 S              41.380  0.00     3 H
                                    3.13%     1 P:y            11.162  0.00     4 H
                                   -1.42%     3 P:y            55.959  0.00     1 C
       4.613  0.00    11 A        106.41%     2 P:z             4.559  0.00     1 C
                                   -2.13%     1 P:z            11.162  0.00     3 H
                                   -2.13%     1 P:z            11.162  0.00     2 H
                                   -2.13%     1 P:z            11.162  0.00     4 H


                                       *** SPIN 2 ***


       E(eV)  Occ       MO           %     SFO (first member)   E(eV)  Occ   Fragment
 -------------------------------------------------------------------------------------

     -16.030  1.00     2 A         44.50%     2 S             -13.802  2.00     1 C
                                   17.35%     1 S              -6.484  1.00     4 H
                                   17.33%     1 S              -6.484  1.00     2 H
                                   17.33%     1 S              -6.484  1.00     3 H
                                    2.17%     1 P:x            11.162  0.00     4 H
                                    1.62%     1 P:y            11.162  0.00     2 H
                                    1.62%     1 P:y            11.162  0.00     3 H
      -9.948  1.00     3 A         40.05%     1 S              -6.484  1.00     4 H
                                   38.65%     1 P:x            -5.135  0.67     1 C
                                   10.02%     1 S              -6.484  1.00     2 H
                                   10.02%     1 S              -6.484  1.00     3 H
      -9.946  1.00     4 A         38.65%     1 P:y            -5.135  0.67     1 C
                                   30.05%     1 S              -6.484  1.00     3 H
                                   30.05%     1 S              -6.484  1.00     2 H
                                    1.33%     1 P:y            11.162  0.00     4 H
      -2.844  0.00     5 A         87.17%     1 P:z            -5.135  0.67     1 C
                                    3.29%     1 P:z            11.162  0.00     4 H
                                    3.28%     1 P:z            11.162  0.00     3 H
                                    3.28%     1 P:z            11.162  0.00     2 H
                                    2.37%     2 P:z             4.559  0.00     1 C
      -0.082  0.00     6 A         26.32%     2 S               2.096  0.00     4 H
                                   26.24%     2 S               2.096  0.00     3 H
                                   26.24%     2 S               2.096  0.00     2 H
                                  -19.16%     3 S              10.456  0.00     1 C
                                   12.00%     1 S              -6.484  1.00     4 H
                                   11.97%     1 S              -6.484  1.00     3 H
                                   11.97%     1 S              -6.484  1.00     2 H
                                    4.72%     2 S             -13.802  2.00     1 C
       1.364  0.00     7 A         48.14%     2 S               2.096  0.00     4 H
                                  -41.92%     2 P:x             4.559  0.00     1 C
                                   39.11%     1 S              -6.484  1.00     4 H
                                   12.10%     2 S               2.096  0.00     2 H
                                   12.08%     2 S               2.096  0.00     3 H
                                    9.81%     1 S              -6.484  1.00     2 H
                                    9.79%     1 S              -6.484  1.00     3 H
                                    4.26%     3 S              41.380  0.00     4 H
                                    2.21%     1 P:x            -5.135  0.67     1 C
                                    1.06%     3 S              41.380  0.00     2 H
                                    1.06%     3 S              41.380  0.00     3 H
       1.365  0.00     8 A        -41.88%     2 P:y             4.559  0.00     1 C
                                   36.18%     2 S               2.096  0.00     3 H
                                   36.16%     2 S               2.096  0.00     2 H
                                   29.34%     1 S              -6.484  1.00     3 H
                                   29.33%     1 S              -6.484  1.00     2 H
                                    3.20%     3 S              41.380  0.00     3 H
                                    3.19%     3 S              41.380  0.00     2 H
                                    2.21%     1 P:y            -5.135  0.67     1 C
       4.229  0.00     9 A         56.12%     2 P:x             4.559  0.00     1 C
                                   52.13%     1 P:x            -5.135  0.67     1 C
                                   25.23%     1 S              -6.484  1.00     4 H
                                  -24.25%     2 S               2.096  0.00     4 H
                                   -7.58%     3 S              41.380  0.00     4 H
                                    6.29%     1 S              -6.484  1.00     3 H
                                    6.29%     1 S              -6.484  1.00     2 H
                                   -6.07%     2 S               2.096  0.00     3 H
                                   -6.07%     2 S               2.096  0.00     2 H
                                    2.45%     1 P:x            11.162  0.00     2 H
                                    2.45%     1 P:x            11.162  0.00     3 H
                                   -1.89%     3 S              41.380  0.00     3 H
                                   -1.89%     3 S              41.380  0.00     2 H
                                   -1.53%     1 P:x            11.162  0.00     4 H
                                   -1.26%     3 P:x            55.959  0.00     1 C
       4.229  0.00    10 A         56.10%     2 P:y             4.559  0.00     1 C
                                   52.13%     1 P:y            -5.135  0.67     1 C
                                   18.93%     1 S              -6.484  1.00     2 H
                                   18.93%     1 S              -6.484  1.00     3 H
                                  -18.20%     2 S               2.096  0.00     2 H
                                  -18.20%     2 S               2.096  0.00     3 H
                                   -5.69%     3 S              41.380  0.00     2 H
                                   -5.69%     3 S              41.380  0.00     3 H
                                    3.31%     1 P:y            11.162  0.00     4 H
                                   -1.26%     3 P:y            55.959  0.00     1 C



 =======================================================================
 Electrostatic potential at the Nuclei due to electrons and other nuclei
 =======================================================================
  
         Atom                  Potential
         ----                  ---------
     1)   C                  14.79122031
     2)   H                   1.10743272
     3)   H                   1.10743272
     4)   H                   1.10738182
 Mulliken charges used for AMS results%charges...


    =====================
     CALCULATION RESULTS
    =====================

Energy (hartree)            -0.64764581


--------------
Atomic charges
--------------
  Index   Atom    Charge
      1      C    0.4862
      2      H   -0.1621
      3      H   -0.1621
      4      H   -0.1621


Dipole moment vector    (Debye):     0.00019212   -0.00000003   -0.00000002
              magnitude (Debye):     0.00019212


AMS application finished. Exiting.
NORMAL TERMINATION
     Total cpu time:       6.64
  Total system time:       4.14
 Total elapsed time:      12.23
